ITEM: TIMESTEP
0
ITEM: NUMBER OF ATOMS
5184
ITEM: BOX BOUNDS pp pp pp
0.000000 74.083470
0.000000 74.083470
0.000000 74.083470
ITEM: ATOMS id c_arpn c_srpn
1 8.4091 1.6695
2 7.3889 1.6377
3 8.0526 1.5719
4 8.2667 2.4349
5 8.0435 1.5458
6 8.4286 1.6351
7 7.2353 1.5541
8 7.4500 1.7741
9 0.0000 0.0000
10 0.0000 0.0000
11 0.0000 0.0000
12 0.0000 0.0000
13 0.0000 0.0000
14 0.0000 0.0000
15 0.0000 0.0000
16 0.0000 0.0000
17 0.0000 0.0000
18 0.0000 0.0000
19 0.0000 0.0000
20 0.0000 0.0000
21 0.0000 0.0000
22 0.0000 0.0000
23 0.0000 0.0000
24 0.0000 0.0000
25 8.4000 2.0833
26 6.4000 1.4967
27 8.1765 1.9474
28 8.0000 1.9437
29 7.5000 1.9221
30 6.6000 1.4514
31 6.7692 1.8040
32 8.9667 2.1523
33 0.0000 0.0000
34 0.0000 0.0000
35 0.0000 0.0000
36 0.0000 0.0000
37 0.0000 0.0000
38 0.0000 0.0000
39 0.0000 0.0000
40 0.0000 0.0000
41 0.0000 0.0000
42 0.0000 0.0000
43 0.0000 0.0000
44 0.0000 0.0000
45 0.0000 0.0000
46 0.0000 0.0000
47 0.0000 0.0000
48 0.0000 0.0000
49 7.3846 2.4350
50 7.2727 1.7628
51 7.2857 2.3733
52 7.1333 1.0242
53 8.0526 2.0384
54 7.9524 1.6176
55 7.4000 1.9596
56 7.2727 1.6006
57 0.0000 0.0000
58 0.0000 0.0000
59 0.0000 0.0000
60 0.0000 0.0000
61 0.0000 0.0000
62 0.0000 0.0000
63 0.0000 0.0000
64 0.0000 0.0000
65 0.0000 0.0000
66 0.0000 0.0000
67 0.0000 0.0000
68 0.0000 0.0000
69 0.0000 0.0000
70 0.0000 0.0000
71 0.0000 0.0000
72 0.0000 0.0000
73 7.7059 1.6365
74 8.6000 2.4980
75 7.4000 2.7276
76 7.6250 1.8329
77 9.0000 2.1869
78 7.8824 2.1661
79 7.9000 1.4107
80 7.7692 2.0439
81 0.0000 0.0000
82 0.0000 0.0000
83 0.0000 0.0000
84 0.0000 0.0000
85 0.0000 0.0000
86 0.0000 0.0000
87 0.0000 0.0000
88 0.0000 0.0000
89 0.0000 0.0000
90 0.0000 0.0000
91 0.0000 0.0000
92 0.0000 0.0000
93 0.0000 0.0000
94 0.0000 0.0000
95 0.0000 0.0000
96 0.0000 0.0000
97 8.4583 2.6454
98 7.1250 1.5360
99 8.0625 1.8530
100 8.0556 1.5802
101 8.0625 2.1929
102 8.2857 1.6225
103 7.9500 1.7457
104 7.1429 1.8461
105 0.0000 0.0000
106 0.0000 0.0000
107 0.0000 0.0000
108 0.0000 0.0000
109 0.0000 0.0000
110 0.0000 0.0000
111 0.0000 0.0000
112 0.0000 0.0000
113 0.0000 0.0000
114 0.0000 0.0000
115 0.0000 0.0000
116 0.0000 0.0000
117 0.0000 0.0000
118 0.0000 0.0000
119 0.0000 0.0000
120 0.0000 0.0000
121 7.1333 1.2579
122 7.4286 1.7202
123 9.2500 2.5582
124 7.4615 2.0612
125 7.3684 1.1337
126 7.8000 2.6382
127 7.7000 1.9261
128 7.1667 1.5723
129 0.0000 0.0000
130 0.0000 0.0000
131 0.0000 0.0000
132 0.0000 0.0000
133 0.0000 0.0000
134 0.0000 0.0000
135 0.0000 0.0000
136 0.0000 0.0000
137 0.0000 0.0000
138 0.0000 0.0000
139 0.0000 0.0000
140 0.0000 0.0000
141 0.0000 0.0000
142 0.0000 0.0000
143 0.0000 0.0000
144 0.0000 0.0000
145 6.1818 1.0285
146 7.2727 2.2194
147 8.8929 2.7818
148 7.7500 1.8314
149 8.3600 1.6704
150 9.0000 3.7081
151 7.6111 1.9476
152 7.4167 1.8465
153 0.0000 0.0000
154 0.0000 0.0000
155 0.0000 0.0000
156 0.0000 0.0000
157 0.0000 0.0000
158 0.0000 0.0000
159 0.0000 0.0000
160 0.0000 0.0000
161 0.0000 0.0000
162 0.0000 0.0000
163 0.0000 0.0000
164 0.0000 0.0000
165 0.0000 0.0000
166 0.0000 0.0000
167 0.0000 0.0000
168 0.0000 0.0000
169 7.4211 1.2697
170 7.2500 1.4790
171 8.0000 1.2019
172 8.5185 1.8732
173 7.1250 1.4524
174 7.8333 1.5723
175 8.1364 1.6038
176 9.3333 2.6247
177 0.0000 0.0000
178 0.0000 0.0000
179 0.0000 0.0000
180 0.0000 0.0000
181 0.0000 0.0000
182 0.0000 0.0000
183 0.0000 0.0000
184 0.0000 0.0000
185 0.0000 0.0000
186 0.0000 0.0000
187 0.0000 0.0000
188 0.0000 0.0000
189 0.0000 0.0000
190 0.0000 0.0000
191 0.0000 0.0000
192 0.0000 0.0000
193 7.1000 1.5133
194 8.6000 2.6783
195 6.9333 1.0625
196 6.7500 1.4790
197 7.7059 1.8713
198 7.4000 1.6248
199 8.2857 2.6030
200 8.2917 1.5674
201 0.0000 0.0000
202 0.0000 0.0000
203 0.0000 0.0000
204 0.0000 0.0000
205 0.0000 0.0000
206 0.0000 0.0000
207 0.0000 0.0000
208 0.0000 0.0000
209 0.0000 0.0000
210 0.0000 0.0000
211 0.0000 0.0000
212 0.0000 0.0000
213 0.0000 0.0000
214 0.0000 0.0000
215 0.0000 0.0000
216 0.0000 0.0000
217 7.5882 1.9115
218 7.2000 1.5144
219 7.6500 1.9564
220 7.8333 2.1409
221 6.4000 1.6852
222 7.7647 2.5559
223 8.1250 1.9961
224 9.4500 2.2017
225 0.0000 0.0000
226 0.0000 0.0000
227 0.0000 0.0000
228 0.0000 0.0000
229 0.0000 0.0000
230 0.0000 0.0000
231 0.0000 0.0000
232 0.0000 0.0000
233 0.0000 0.0000
234 0.0000 0.0000
235 0.0000 0.0000
236 0.0000 0.0000
237 0.0000 0.0000
238 0.0000 0.0000
239 0.0000 0.0000
240 0.0000 0.0000
241 9.3636 3.0829
242 8.1765 2.0930
243 7.8889 1.2862
244 8.2222 1.5713
245 7.5294 1.6844
246 7.4167 2.4986
247 8.8889 2.1830
248 7.3684 1.6610
249 0.0000 0.0000
250 0.0000 0.0000
251 0.0000 0.0000
252 0.0000 0.0000
253 0.0000 0.0000
254 0.0000 0.0000
255 0.0000 0.0000
256 0.0000 0.0000
257 0.0000 0.0000
258 0.0000 0.0000
259 0.0000 0.0000
260 0.0000 0.0000
261 0.0000 0.0000
262 0.0000 0.0000
263 0.0000 0.0000
264 0.0000 0.0000
265 6.7857 1.9704
266 8.5000 3.0578
267 7.5882 1.3745
268 9.8519 2.5049
269 8.5455 2.2508
270 7.9333 1.8062
271 6.9091 2.0651
272 7.2222 2.6574
273 0.0000 0.0000
274 0.0000 0.0000
275 0.0000 0.0000
276 0.0000 0.0000
277 0.0000 0.0000
278 0.0000 0.0000
279 0.0000 0.0000
280 0.0000 0.0000
281 0.0000 0.0000
282 0.0000 0.0000
283 0.0000 0.0000
284 0.0000 0.0000
285 0.0000 0.0000
286 0.0000 0.0000
287 0.0000 0.0000
288 0.0000 0.0000
289 6.5455 2.0165
290 8.2500 2.0946
291 6.7143 1.1606
292 8.4500 2.1558
293 7.8333 2.0069
294 8.6250 2.0578
295 9.5000 2.0616
296 8.5789 2.3690
297 0.0000 0.0000
298 0.0000 0.0000
299 0.0000 0.0000
300 0.0000 0.0000
301 0.0000 0.0000
302 0.0000 0.0000
303 0.0000 0.0000
304 0.0000 0.0000
305 0.0000 0.0000
306 0.0000 0.0000
307 0.0000 0.0000
308 0.0000 0.0000
309 0.0000 0.0000
310 0.0000 0.0000
311 0.0000 0.0000
312 0.0000 0.0000
313 8.2000 2.3580
314 6.8750 1.1659
315 7.4545 2.2305
316 7.6667 2.0000
317 8.7895 1.8519
318 7.2727 2.4155
319 7.4444 2.4088
320 8.1000 1.4457
321 0.0000 0.0000
322 0.0000 0.0000
323 0.0000 0.0000
324 0.0000 0.0000
325 0.0000 0.0000
326 0.0000 0.0000
327 0.0000 0.0000
328 0.0000 0.0000
329 0.0000 0.0000
330 0.0000 0.0000
331 0.0000 0.0000
332 0.0000 0.0000
333 0.0000 0.0000
334 0.0000 0.0000
335 0.0000 0.0000
336 0.0000 0.0000
337 7.8947 1.8608
338 8.1176 1.7450
339 6.7778 2.5724
340 8.1200 1.5829
341 8.3793 1.5847
342 7.5714 1.8014
343 6.6667 1.4907
344 7.8800 1.7046
345 0.0000 0.0000
346 0.0000 0.0000
347 0.0000 0.0000
348 0.0000 0.0000
349 0.0000 0.0000
350 0.0000 0.0000
351 0.0000 0.0000
352 0.0000 0.0000
353 0.0000 0.0000
354 0.0000 0.0000
355 0.0000 0.0000
356 0.0000 0.0000
357 0.0000 0.0000
358 0.0000 0.0000
359 0.0000 0.0000
360 0.0000 0.0000
361 6.6000 1.9596
362 7.8235 2.3069
363 7.5238 1.3669
364 8.2353 2.2104
365 7.4118 1.6109
366 7.6190 1.7587
367 7.9000 1.9975
368 8.9200 2.0183
369 0.0000 0.0000
370 0.0000 0.0000
371 0.0000 0.0000
372 0.0000 0.0000
373 0.0000 0.0000
374 0.0000 0.0000
375 0.0000 0.0000
376 0.0000 0.0000
377 0.0000 0.0000
378 0.0000 0.0000
379 0.0000 0.0000
380 0.0000 0.0000
381 0.0000 0.0000
382 0.0000 0.0000
383 0.0000 0.0000
384 0.0000 0.0000
385 8.2667 2.5157
386 8.0000 1.8340
387 8.1667 1.8634
388 7.2500 2.0156
389 8.3810 1.9875
390 7.7333 1.8785
391 7.1667 2.1148
392 7.4444 1.8325
393 0.0000 0.0000
394 0.0000 0.0000
395 0.0000 0.0000
396 0.0000 0.0000
397 0.0000 0.0000
398 0.0000 0.0000
399 0.0000 0.0000
400 0.0000 0.0000
401 0.0000 0.0000
402 0.0000 0.0000
403 0.0000 0.0000
404 0.0000 0.0000
405 0.0000 0.0000
406 0.0000 0.0000
407 0.0000 0.0000
408 0.0000 0.0000
409 7.3333 2.2111
410 7.9231 1.2686
411 7.3125 1.4882
412 8.2222 1.8122
413 7.8889 1.5235
414 6.7500 1.5343
415 6.2000 1.9900
416 7.9375 1.7128
417 0.0000 0.0000
418 0.0000 0.0000
419 0.0000 0.0000
420 0.0000 0.0000
421 0.0000 0.0000
422 0.0000 0.0000
423 0.0000 0.0000
424 0.0000 0.0000
425 0.0000 0.0000
426 0.0000 0.0000
427 0.0000 0.0000
428 0.0000 0.0000
429 0.0000 0.0000
430 0.0000 0.0000
431 0.0000 0.0000
432 0.0000 0.0000
433 7.1176 1.2780
434 7.6842 1.6560
435 7.0909 1.8807
436 6.6667 1.1785
437 8.2105 1.6085
438 6.8462 1.6570
439 7.6471 2.2476
440 7.7368 1.8308
441 0.0000 0.0000
442 0.0000 0.0000
443 0.0000 0.0000
444 0.0000 0.0000
445 0.0000 0.0000
446 0.0000 0.0000
447 0.0000 0.0000
448 0.0000 0.0000
449 0.0000 0.0000
450 0.0000 0.0000
451 0.0000 0.0000
452 0.0000 0.0000
453 0.0000 0.0000
454 0.0000 0.0000
455 0.0000 0.0000
456 0.0000 0.0000
457 6.8000 2.2716
458 8.1579 1.8141
459 7.6111 1.4583
460 7.3333 1.1926
461 7.8824 1.6045
462 7.8095 1.4677
463 8.3571 2.5525
464 7.6667 2.1187
465 0.0000 0.0000
466 0.0000 0.0000
467 0.0000 0.0000
468 0.0000 0.0000
469 0.0000 0.0000
470 0.0000 0.0000
471 0.0000 0.0000
472 0.0000 0.0000
473 0.0000 0.0000
474 0.0000 0.0000
475 0.0000 0.0000
476 0.0000 0.0000
477 0.0000 0.0000
478 0.0000 0.0000
479 0.0000 0.0000
480 0.0000 0.0000
481 7.6111 1.6377
482 8.3333 2.3094
483 9.3000 1.9519
484 8.6000 1.7205
485 7.6000 1.4967
486 8.1739 1.5507
487 8.7778 2.3934
488 7.4286 2.0947
489 0.0000 0.0000
490 0.0000 0.0000
491 0.0000 0.0000
492 0.0000 0.0000
493 0.0000 0.0000
494 0.0000 0.0000
495 0.0000 0.0000
496 0.0000 0.0000
497 0.0000 0.0000
498 0.0000 0.0000
499 0.0000 0.0000
500 0.0000 0.0000
501 0.0000 0.0000
502 0.0000 0.0000
503 0.0000 0.0000
504 0.0000 0.0000
505 6.6364 1.7721
506 7.2500 1.7854
507 7.9200 1.3833
508 7.9500 1.7741
509 7.9000 1.5780
510 7.8462 2.3809
511 8.1667 2.3154
512 8.1053 1.6188
513 0.0000 0.0000
514 0.0000 0.0000
515 0.0000 0.0000
516 0.0000 0.0000
517 0.0000 0.0000
518 0.0000 0.0000
519 0.0000 0.0000
520 0.0000 0.0000
521 0.0000 0.0000
522 0.0000 0.0000
523 0.0000 0.0000
524 0.0000 0.0000
525 0.0000 0.0000
526 0.0000 0.0000
527 0.0000 0.0000
528 0.0000 0.0000
529 7.0000 1.3587
530 7.8235 2.0069
531 7.3333 1.9293
532 7.5714 1.9898
533 7.5294 1.2888
534 7.2778 1.7258
535 8.2727 1.8136
536 7.0000 1.5916
537 0.0000 0.0000
538 0.0000 0.0000
539 0.0000 0.0000
540 0.0000 0.0000
541 0.0000 0.0000
542 0.0000 0.0000
543 0.0000 0.0000
544 0.0000 0.0000
545 0.0000 0.0000
546 0.0000 0.0000
547 0.0000 0.0000
548 0.0000 0.0000
549 0.0000 0.0000
550 0.0000 0.0000
551 0.0000 0.0000
552 0.0000 0.0000
553 7.2857 1.6660
554 6.7500 1.6394
555 7.8000 1.7493
556 7.7647 1.6280
557 8.2941 1.5630
558 8.6522 2.2957
559 7.5263 1.6016
560 7.9231 2.4950
561 0.0000 0.0000
562 0.0000 0.0000
563 0.0000 0.0000
564 0.0000 0.0000
565 0.0000 0.0000
566 0.0000 0.0000
567 0.0000 0.0000
568 0.0000 0.0000
569 0.0000 0.0000
570 0.0000 0.0000
571 0.0000 0.0000
572 0.0000 0.0000
573 0.0000 0.0000
574 0.0000 0.0000
575 0.0000 0.0000
576 0.0000 0.0000
577 7.5455 1.8763
578 7.7647 1.7330
579 7.2000 1.9391
580 7.8182 2.4427
581 7.3158 1.6560
582 8.3333 2.0184
583 7.6316 2.1327
584 7.5333 1.7461
585 0.0000 0.0000
586 0.0000 0.0000
587 0.0000 0.0000
588 0.0000 0.0000
589 0.0000 0.0000
590 0.0000 0.0000
591 0.0000 0.0000
592 0.0000 0.0000
593 0.0000 0.0000
594 0.0000 0.0000
595 0.0000 0.0000
596 0.0000 0.0000
597 0.0000 0.0000
598 0.0000 0.0000
599 0.0000 0.0000
600 0.0000 0.0000
601 8.3000 2.0273
602 8.4167 2.7221
603 7.8889 2.0518
604 7.3333 1.5986
605 7.8400 1.7362
606 8.3913 1.7380
607 7.8235 2.0647
608 9.0000 2.8284
609 0.0000 0.0000
610 0.0000 0.0000
611 0.0000 0.0000
612 0.0000 0.0000
613 0.0000 0.0000
614 0.0000 0.0000
615 0.0000 0.0000
616 0.0000 0.0000
617 0.0000 0.0000
618 0.0000 0.0000
619 0.0000 0.0000
620 0.0000 0.0000
621 0.0000 0.0000
622 0.0000 0.0000
623 0.0000 0.0000
624 0.0000 0.0000
625 7.3750 1.4948
626 7.8000 1.2884
627 7.5556 1.8019
628 8.5600 1.8779
629 7.3333 1.8856
630 8.0000 1.6733
631 6.8462 1.8748
632 7.2308 2.6934
633 0.0000 0.0000
634 0.0000 0.0000
635 0.0000 0.0000
636 0.0000 0.0000
637 0.0000 0.0000
638 0.0000 0.0000
639 0.0000 0.0000
640 0.0000 0.0000
641 0.0000 0.0000
642 0.0000 0.0000
643 0.0000 0.0000
644 0.0000 0.0000
645 0.0000 0.0000
646 0.0000 0.0000
647 0.0000 0.0000
648 0.0000 0.0000
649 8.5833 1.4410
650 9.0000 2.2005
651 7.6111 1.5326
652 6.2500 1.4790
653 7.5000 1.5411
654 8.0000 2.0817
655 8.4667 1.9956
656 6.2857 1.9431
657 0.0000 0.0000
658 0.0000 0.0000
659 0.0000 0.0000
660 0.0000 0.0000
661 0.0000 0.0000
662 0.0000 0.0000
663 0.0000 0.0000
664 0.0000 0.0000
665 0.0000 0.0000
666 0.0000 0.0000
667 0.0000 0.0000
668 0.0000 0.0000
669 0.0000 0.0000
670 0.0000 0.0000
671 0.0000 0.0000
672 0.0000 0.0000
673 7.0000 1.2247
674 7.3529 1.0815
675 8.2105 1.8232
676 7.2941 1.8396
677 7.4615 1.3931
678 6.6667 1.8856
679 6.5455 1.4993
680 7.6667 1.4907
681 0.0000 0.0000
682 0.0000 0.0000
683 0.0000 0.0000
684 0.0000 0.0000
685 0.0000 0.0000
686 0.0000 0.0000
687 0.0000 0.0000
688 0.0000 0.0000
689 0.0000 0.0000
690 0.0000 0.0000
691 0.0000 0.0000
692 0.0000 0.0000
693 0.0000 0.0000
694 0.0000 0.0000
695 0.0000 0.0000
696 0.0000 0.0000
697 7.5714 1.9535
698 7.6154 1.9822
699 8.7000 2.0025
700 7.6923 2.4301
701 7.5625 2.3444
702 6.9286 1.8695
703 7.8333 1.5456
704 6.3846 2.0583
705 0.0000 0.0000
706 0.0000 0.0000
707 0.0000 0.0000
708 0.0000 0.0000
709 0.0000 0.0000
710 0.0000 0.0000
711 0.0000 0.0000
712 0.0000 0.0000
713 0.0000 0.0000
714 0.0000 0.0000
715 0.0000 0.0000
716 0.0000 0.0000
717 0.0000 0.0000
718 0.0000 0.0000
719 0.0000 0.0000
720 0.0000 0.0000
721 7.3077 1.7269
722 7.0769 1.6390
723 7.2778 1.2385
724 7.9630 1.9145
725 7.1667 1.8181
726 9.1000 2.2338
727 9.7391 1.6476
728 7.3529 1.5696
729 0.0000 0.0000
730 0.0000 0.0000
731 0.0000 0.0000
732 0.0000 0.0000
733 0.0000 0.0000
734 0.0000 0.0000
735 0.0000 0.0000
736 0.0000 0.0000
737 0.0000 0.0000
738 0.0000 0.0000
739 0.0000 0.0000
740 0.0000 0.0000
741 0.0000 0.0000
742 0.0000 0.0000
743 0.0000 0.0000
744 0.0000 0.0000
745 7.5263 2.0868
746 7.2941 1.5249
747 7.9655 1.2172
748 8.3333 1.8499
749 6.9091 1.0833
750 8.7308 1.8093
751 7.5714 1.6782
752 8.5882 1.8490
753 0.0000 0.0000
754 0.0000 0.0000
755 0.0000 0.0000
756 0.0000 0.0000
757 0.0000 0.0000
758 0.0000 0.0000
759 0.0000 0.0000
760 0.0000 0.0000
761 0.0000 0.0000
762 0.0000 0.0000
763 0.0000 0.0000
764 0.0000 0.0000
765 0.0000 0.0000
766 0.0000 0.0000
767 0.0000 0.0000
768 0.0000 0.0000
769 8.6316 2.5590
770 8.0000 2.3833
771 8.4615 2.5904
772 7.5000 1.8420
773 7.3571 1.5860
774 9.3529 2.7641
775 7.9412 1.8934
776 6.8462 1.4058
777 0.0000 0.0000
778 0.0000 0.0000
779 0.0000 0.0000
780 0.0000 0.0000
781 0.0000 0.0000
782 0.0000 0.0000
783 0.0000 0.0000
784 0.0000 0.0000
785 0.0000 0.0000
786 0.0000 0.0000
787 0.0000 0.0000
788 0.0000 0.0000
789 0.0000 0.0000
790 0.0000 0.0000
791 0.0000 0.0000
792 0.0000 0.0000
793 6.8750 1.6536
794 8.6000 1.6653
795 8.2308 2.3256
796 6.7143 1.6660
797 8.1765 2.0647
798 7.9091 1.9285
799 7.7500 2.0767
800 7.7500 1.6771
801 0.0000 0.0000
802 0.0000 0.0000
803 0.0000 0.0000
804 0.0000 0.0000
805 0.0000 0.0000
806 0.0000 0.0000
807 0.0000 0.0000
808 0.0000 0.0000
809 0.0000 0.0000
810 0.0000 0.0000
811 0.0000 0.0000
812 0.0000 0.0000
813 0.0000 0.0000
814 0.0000 0.0000
815 0.0000 0.0000
816 0.0000 0.0000
817 7.6316 1.9252
818 7.8261 1.0896
819 7.1667 2.5766
820 6.3333 1.1785
821 8.0769 1.6623
822 7.0714 1.2227
823 7.8571 1.5518
824 8.1667 1.6499
825 0.0000 0.0000
826 0.0000 0.0000
827 0.0000 0.0000
828 0.0000 0.0000
829 0.0000 0.0000
830 0.0000 0.0000
831 0.0000 0.0000
832 0.0000 0.0000
833 0.0000 0.0000
834 0.0000 0.0000
835 0.0000 0.0000
836 0.0000 0.0000
837 0.0000 0.0000
838 0.0000 0.0000
839 0.0000 0.0000
840 0.0000 0.0000
841 7.7500 1.3919
842 8.5909 2.2895
843 6.9286 1.4375
844 6.9231 1.8999
845 7.5714 2.1618
846 7.7692 2.2584
847 8.6667 2.1257
848 8.2500 2.1651
849 0.0000 0.0000
850 0.0000 0.0000
851 0.0000 0.0000
852 0.0000 0.0000
853 0.0000 0.0000
854 0.0000 0.0000
855 0.0000 0.0000
856 0.0000 0.0000
857 0.0000 0.0000
858 0.0000 0.0000
859 0.0000 0.0000
860 0.0000 0.0000
861 0.0000 0.0000
862 0.0000 0.0000
863 0.0000 0.0000
864 0.0000 0.0000
865 8.5217 1.8147
866 8.5652 2.6014
867 8.2632 2.3360
868 7.2857 2.2497
869 6.8667 1.4545
870 6.7857 1.0809
871 6.1111 0.8749
872 6.6364 1.4938
873 0.0000 0.0000
874 0.0000 0.0000
875 0.0000 0.0000
876 0.0000 0.0000
877 0.0000 0.0000
878 0.0000 0.0000
879 0.0000 0.0000
880 0.0000 0.0000
881 0.0000 0.0000
882 0.0000 0.0000
883 0.0000 0.0000
884 0.0000 0.0000
885 0.0000 0.0000
886 0.0000 0.0000
887 0.0000 0.0000
888 0.0000 0.0000
889 6.2857 1.3851
890 9.1071 2.1603
891 7.3000 2.2383
892 7.8571 2.0653
893 7.7600 1.4773
894 7.1333 1.2579
895 8.3200 1.8702
896 7.2500 1.3463
897 0.0000 0.0000
898 0.0000 0.0000
899 0.0000 0.0000
900 0.0000 0.0000
901 0.0000 0.0000
902 0.0000 0.0000
903 0.0000 0.0000
904 0.0000 0.0000
905 0.0000 0.0000
906 0.0000 0.0000
907 0.0000 0.0000
908 0.0000 0.0000
909 0.0000 0.0000
910 0.0000 0.0000
911 0.0000 0.0000
912 0.0000 0.0000
913 8.8387 2.0335
914 8.3333 1.5154
915 7.2667 2.4074
916 7.9286 2.6583
917 8.3684 1.7833
918 7.9000 1.4457
919 7.4118 1.6471
920 7.4444 1.0123
921 0.0000 0.0000
922 0.0000 0.0000
923 0.0000 0.0000
924 0.0000 0.0000
925 0.0000 0.0000
926 0.0000 0.0000
927 0.0000 0.0000
928 0.0000 0.0000
929 0.0000 0.0000
930 0.0000 0.0000
931 0.0000 0.0000
932 0.0000 0.0000
933 0.0000 0.0000
934 0.0000 0.0000
935 0.0000 0.0000
936 0.0000 0.0000
937 8.2632 2.1482
938 9.2759 2.3178
939 7.4000 1.7049
940 7.8000 2.5087
941 8.0714 2.3744
942 8.8000 1.9647
943 7.2500 1.6771
944 6.4000 2.0591
945 0.0000 0.0000
946 0.0000 0.0000
947 0.0000 0.0000
948 0.0000 0.0000
949 0.0000 0.0000
950 0.0000 0.0000
951 0.0000 0.0000
952 0.0000 0.0000
953 0.0000 0.0000
954 0.0000 0.0000
955 0.0000 0.0000
956 0.0000 0.0000
957 0.0000 0.0000
958 0.0000 0.0000
959 0.0000 0.0000
960 0.0000 0.0000
961 7.0000 1.7321
962 7.3158 1.6239
963 7.5714 1.9535
964 7.2000 1.6813
965 8.7241 1.7984
966 7.7059 1.8073
967 7.5833 1.3819
968 8.2609 2.0047
969 0.0000 0.0000
970 0.0000 0.0000
971 0.0000 0.0000
972 0.0000 0.0000
973 0.0000 0.0000
974 0.0000 0.0000
975 0.0000 0.0000
976 0.0000 0.0000
977 0.0000 0.0000
978 0.0000 0.0000
979 0.0000 0.0000
980 0.0000 0.0000
981 0.0000 0.0000
982 0.0000 0.0000
983 0.0000 0.0000
984 0.0000 0.0000
985 7.5000 1.6073
986 6.9000 2.1190
987 7.3889 1.6034
988 8.0833 1.2883
989 7.1538 1.6570
990 7.3125 1.8275
991 8.5000 2.1564
992 8.3125 1.6093
993 0.0000 0.0000
994 0.0000 0.0000
995 0.0000 0.0000
996 0.0000 0.0000
997 0.0000 0.0000
998 0.0000 0.0000
999 0.0000 0.0000
1000 0.0000 0.0000
1001 0.0000 0.0000
1002 0.0000 0.0000
1003 0.0000 0.0000
1004 0.0000 0.0000
1005 0.0000 0.0000
1006 0.0000 0.0000
1007 0.0000 0.0000
1008 0.0000 0.0000
1009 8.7500 1.5411
1010 7.5556 1.8626
1011 9.2857 1.9060
1012 7.3333 2.4608
1013 8.1429 2.2738
1014 8.7917 2.1405
1015 7.4706 2.1725
1016 7.4286 2.7180
1017 0.0000 0.0000
1018 0.0000 0.0000
1019 0.0000 0.0000
1020 0.0000 0.0000
1021 0.0000 0.0000
1022 0.0000 0.0000
1023 0.0000 0.0000
1024 0.0000 0.0000
1025 0.0000 0.0000
1026 0.0000 0.0000
1027 0.0000 0.0000
1028 0.0000 0.0000
1029 0.0000 0.0000
1030 0.0000 0.0000
1031 0.0000 0.0000
1032 0.0000 0.0000
1033 8.3889 2.4069
1034 6.6667 1.3744
1035 7.5385 1.8236
1036 7.7500 1.0897
1037 7.5000 1.5000
1038 7.2667 1.9482
1039 8.4500 2.2243
1040 7.8947 1.7136
1041 0.0000 0.0000
1042 0.0000 0.0000
1043 0.0000 0.0000
1044 0.0000 0.0000
1045 0.0000 0.0000
1046 0.0000 0.0000
1047 0.0000 0.0000
1048 0.0000 0.0000
1049 0.0000 0.0000
1050 0.0000 0.0000
1051 0.0000 0.0000
1052 0.0000 0.0000
1053 0.0000 0.0000
1054 0.0000 0.0000
1055 0.0000 0.0000
1056 0.0000 0.0000
1057 7.4286 1.6782
1058 6.9286 1.8695
1059 8.3077 2.0526
1060 7.8889 1.9116
1061 8.0952 1.6592
1062 5.6667 0.9428
1063 8.4091 1.8256
1064 7.3077 1.6818
1065 0.0000 0.0000
1066 0.0000 0.0000
1067 0.0000 0.0000
1068 0.0000 0.0000
1069 0.0000 0.0000
1070 0.0000 0.0000
1071 0.0000 0.0000
1072 0.0000 0.0000
1073 0.0000 0.0000
1074 0.0000 0.0000
1075 0.0000 0.0000
1076 0.0000 0.0000
1077 0.0000 0.0000
1078 0.0000 0.0000
1079 0.0000 0.0000
1080 0.0000 0.0000
1081 6.7778 1.8122
1082 8.4000 1.7720
1083 7.2222 1.3147
1084 7.4286 1.5452
1085 7.4000 1.3064
1086 8.5000 2.4597
1087 6.3571 1.2877
1088 8.4400 1.7906
1089 0.0000 0.0000
1090 0.0000 0.0000
1091 0.0000 0.0000
1092 0.0000 0.0000
1093 0.0000 0.0000
1094 0.0000 0.0000
1095 0.0000 0.0000
1096 0.0000 0.0000
1097 0.0000 0.0000
1098 0.0000 0.0000
1099 0.0000 0.0000
1100 0.0000 0.0000
1101 0.0000 0.0000
1102 0.0000 0.0000
1103 0.0000 0.0000
1104 0.0000 0.0000
1105 8.4348 2.4641
1106 7.4737 1.9295
1107 7.5455 2.4258
1108 8.4118 2.0309
1109 9.0400 2.4245
1110 5.9000 1.0440
1111 7.3529 1.6783
1112 7.2222 1.4359
1113 0.0000 0.0000
1114 0.0000 0.0000
1115 0.0000 0.0000
1116 0.0000 0.0000
1117 0.0000 0.0000
1118 0.0000 0.0000
1119 0.0000 0.0000
1120 0.0000 0.0000
1121 0.0000 0.0000
1122 0.0000 0.0000
1123 0.0000 0.0000
1124 0.0000 0.0000
1125 0.0000 0.0000
1126 0.0000 0.0000
1127 0.0000 0.0000
1128 0.0000 0.0000
1129 8.3125 1.8275
1130 8.7308 2.4582
1131 7.1111 1.7916
1132 8.0870 1.5856
1133 7.8421 1.6627
1134 8.2857 1.9308
1135 8.1429 2.4550
1136 7.4286 2.1285
1137 0.0000 0.0000
1138 0.0000 0.0000
1139 0.0000 0.0000
1140 0.0000 0.0000
1141 0.0000 0.0000
1142 0.0000 0.0000
1143 0.0000 0.0000
1144 0.0000 0.0000
1145 0.0000 0.0000
1146 0.0000 0.0000
1147 0.0000 0.0000
1148 0.0000 0.0000
1149 0.0000 0.0000
1150 0.0000 0.0000
1151 0.0000 0.0000
1152 0.0000 0.0000
1153 7.6875 1.7219
1154 8.3500 1.3519
1155 7.3333 1.7385
1156 8.0000 1.8091
1157 7.2000 1.6813
1158 8.7619 2.2867
1159 7.4375 1.1163
1160 7.4375 1.9029
1161 0.0000 0.0000
1162 0.0000 0.0000
1163 0.0000 0.0000
1164 0.0000 0.0000
1165 0.0000 0.0000
1166 0.0000 0.0000
1167 0.0000 0.0000
1168 0.0000 0.0000
1169 0.0000 0.0000
1170 0.0000 0.0000
1171 0.0000 0.0000
1172 0.0000 0.0000
1173 0.0000 0.0000
1174 0.0000 0.0000
1175 0.0000 0.0000
1176 0.0000 0.0000
1177 8.8846 1.6011
1178 6.9286 2.2509
1179 9.2083 1.7554
1180 7.2667 2.2050
1181 8.7500 1.4299
1182 7.5625 1.6190
1183 8.0000 2.4749
1184 7.7500 1.9843
1185 0.0000 0.0000
1186 0.0000 0.0000
1187 0.0000 0.0000
1188 0.0000 0.0000
1189 0.0000 0.0000
1190 0.0000 0.0000
1191 0.0000 0.0000
1192 0.0000 0.0000
1193 0.0000 0.0000
1194 0.0000 0.0000
1195 0.0000 0.0000
1196 0.0000 0.0000
1197 0.0000 0.0000
1198 0.0000 0.0000
1199 0.0000 0.0000
1200 0.0000 0.0000
1201 8.9259 1.8038
1202 6.6875 1.2103
1203 8.6000 2.1071
1204 7.7143 1.8681
1205 8.6667 1.6102
1206 8.1250 1.6154
1207 7.5556 1.2121
1208 7.8667 2.0613
1209 0.0000 0.0000
1210 0.0000 0.0000
1211 0.0000 0.0000
1212 0.0000 0.0000
1213 0.0000 0.0000
1214 0.0000 0.0000
1215 0.0000 0.0000
1216 0.0000 0.0000
1217 0.0000 0.0000
1218 0.0000 0.0000
1219 0.0000 0.0000
1220 0.0000 0.0000
1221 0.0000 0.0000
1222 0.0000 0.0000
1223 0.0000 0.0000
1224 0.0000 0.0000
1225 6.9286 1.7098
1226 8.2632 1.9424
1227 8.0000 2.0000
1228 7.4000 1.5832
1229 8.0556 1.8401
1230 7.5294 2.0613
1231 7.1667 2.4777
1232 8.4667 2.7536
1233 0.0000 0.0000
1234 0.0000 0.0000
1235 0.0000 0.0000
1236 0.0000 0.0000
1237 0.0000 0.0000
1238 0.0000 0.0000
1239 0.0000 0.0000
1240 0.0000 0.0000
1241 0.0000 0.0000
1242 0.0000 0.0000
1243 0.0000 0.0000
1244 0.0000 0.0000
1245 0.0000 0.0000
1246 0.0000 0.0000
1247 0.0000 0.0000
1248 0.0000 0.0000
1249 7.6842 1.6560
1250 6.6923 1.4350
1251 7.8333 1.5366
1252 7.6500 1.7110
1253 7.8947 1.9972
1254 6.7692 1.5269
1255 8.0714 2.3744
1256 7.8125 1.8781
1257 0.0000 0.0000
1258 0.0000 0.0000
1259 0.0000 0.0000
1260 0.0000 0.0000
1261 0.0000 0.0000
1262 0.0000 0.0000
1263 0.0000 0.0000
1264 0.0000 0.0000
1265 0.0000 0.0000
1266 0.0000 0.0000
1267 0.0000 0.0000
1268 0.0000 0.0000
1269 0.0000 0.0000
1270 0.0000 0.0000
1271 0.0000 0.0000
1272 0.0000 0.0000
1273 8.2000 1.7493
1274 8.2667 2.0806
1275 6.4286 1.5908
1276 7.5294 1.4600
1277 8.7391 2.1713
1278 7.7826 1.5592
1279 8.3182 2.3235
1280 8.1429 2.3358
1281 0.0000 0.0000
1282 0.0000 0.0000
1283 0.0000 0.0000
1284 0.0000 0.0000
1285 0.0000 0.0000
1286 0.0000 0.0000
1287 0.0000 0.0000
1288 0.0000 0.0000
1289 0.0000 0.0000
1290 0.0000 0.0000
1291 0.0000 0.0000
1292 0.0000 0.0000
1293 0.0000 0.0000
1294 0.0000 0.0000
1295 0.0000 0.0000
1296 0.0000 0.0000
1297 8.7600 2.0646
1298 6.6875 1.7930
1299 8.3125 2.2000
1300 8.4000 1.7720
1301 9.0000 2.3956
1302 8.2727 1.9113
1303 8.7143 2.4716
1304 7.6429 1.8749
1305 0.0000 0.0000
1306 0.0000 0.0000
1307 0.0000 0.0000
1308 0.0000 0.0000
1309 0.0000 0.0000
1310 0.0000 0.0000
1311 0.0000 0.0000
1312 0.0000 0.0000
1313 0.0000 0.0000
1314 0.0000 0.0000
1315 0.0000 0.0000
1316 0.0000 0.0000
1317 0.0000 0.0000
1318 0.0000 0.0000
1319 0.0000 0.0000
1320 0.0000 0.0000
1321 7.7000 2.6476
1322 8.1429 1.6413
1323 8.5185 1.5956
1324 7.4286 1.9166
1325 7.7059 1.7745
1326 8.2778 2.2805
1327 8.9130 2.5007
1328 7.6429 2.3787
1329 0.0000 0.0000
1330 0.0000 0.0000
1331 0.0000 0.0000
1332 0.0000 0.0000
1333 0.0000 0.0000
1334 0.0000 0.0000
1335 0.0000 0.0000
1336 0.0000 0.0000
1337 0.0000 0.0000
1338 0.0000 0.0000
1339 0.0000 0.0000
1340 0.0000 0.0000
1341 0.0000 0.0000
1342 0.0000 0.0000
1343 0.0000 0.0000
1344 0.0000 0.0000
1345 6.5714 1.4498
1346 7.8235 2.4311
1347 8.5455 1.9004
1348 7.2667 1.3400
1349 7.8462 2.7413
1350 7.8889 1.5947
1351 9.7857 2.3046
1352 7.8235 2.0360
1353 0.0000 0.0000
1354 0.0000 0.0000
1355 0.0000 0.0000
1356 0.0000 0.0000
1357 0.0000 0.0000
1358 0.0000 0.0000
1359 0.0000 0.0000
1360 0.0000 0.0000
1361 0.0000 0.0000
1362 0.0000 0.0000
1363 0.0000 0.0000
1364 0.0000 0.0000
1365 0.0000 0.0000
1366 0.0000 0.0000
1367 0.0000 0.0000
1368 0.0000 0.0000
1369 7.9474 2.1392
1370 7.6000 1.8184
1371 7.2857 1.6225
1372 7.3750 1.4087
1373 8.6000 1.5937
1374 8.2105 2.0668
1375 8.3913 1.7380
1376 8.2381 2.1801
1377 0.0000 0.0000
1378 0.0000 0.0000
1379 0.0000 0.0000
1380 0.0000 0.0000
1381 0.0000 0.0000
1382 0.0000 0.0000
1383 0.0000 0.0000
1384 0.0000 0.0000
1385 0.0000 0.0000
1386 0.0000 0.0000
1387 0.0000 0.0000
1388 0.0000 0.0000
1389 0.0000 0.0000
1390 0.0000 0.0000
1391 0.0000 0.0000
1392 0.0000 0.0000
1393 7.0769 1.8171
1394 8.3810 1.7037
1395 8.2778 2.2560
1396 8.8333 2.7335
1397 6.7692 1.3674
1398 7.0000 1.5191
1399 8.1053 1.9438
1400 7.6250 2.0578
1401 0.0000 0.0000
1402 0.0000 0.0000
1403 0.0000 0.0000
1404 0.0000 0.0000
1405 0.0000 0.0000
1406 0.0000 0.0000
1407 0.0000 0.0000
1408 0.0000 0.0000
1409 0.0000 0.0000
1410 0.0000 0.0000
1411 0.0000 0.0000
1412 0.0000 0.0000
1413 0.0000 0.0000
1414 0.0000 0.0000
1415 0.0000 0.0000
1416 0.0000 0.0000
1417 7.4118 1.4576
1418 8.6250 2.0578
1419 7.0714 1.6241
1420 8.3529 1.7130
1421 7.2941 1.9931
1422 7.0833 1.8465
1423 8.0000 2.1026
1424 8.3793 1.2976
1425 0.0000 0.0000
1426 0.0000 0.0000
1427 0.0000 0.0000
1428 0.0000 0.0000
1429 0.0000 0.0000
1430 0.0000 0.0000
1431 0.0000 0.0000
1432 0.0000 0.0000
1433 0.0000 0.0000
1434 0.0000 0.0000
1435 0.0000 0.0000
1436 0.0000 0.0000
1437 0.0000 0.0000
1438 0.0000 0.0000
1439 0.0000 0.0000
1440 0.0000 0.0000
1441 7.5789 1.7567
1442 7.5556 1.7708
1443 8.4500 2.4182
1444 6.7857 1.7394
1445 8.0476 1.7314
1446 9.2105 2.7257
1447 8.2000 1.9900
1448 7.8696 2.3089
1449 0.0000 0.0000
1450 0.0000 0.0000
1451 0.0000 0.0000
1452 0.0000 0.0000
1453 0.0000 0.0000
1454 0.0000 0.0000
1455 0.0000 0.0000
1456 0.0000 0.0000
1457 0.0000 0.0000
1458 0.0000 0.0000
1459 0.0000 0.0000
1460 0.0000 0.0000
1461 0.0000 0.0000
1462 0.0000 0.0000
1463 0.0000 0.0000
1464 0.0000 0.0000
1465 7.5000 1.4240
1466 7.0667 1.3888
1467 7.5714 3.4993
1468 8.2353 2.2104
1469 7.5000 1.7678
1470 7.2857 1.6372
1471 8.3103 1.6837
1472 8.4286 2.0136
1473 0.0000 0.0000
1474 0.0000 0.0000
1475 0.0000 0.0000
1476 0.0000 0.0000
1477 0.0000 0.0000
1478 0.0000 0.0000
1479 0.0000 0.0000
1480 0.0000 0.0000
1481 0.0000 0.0000
1482 0.0000 0.0000
1483 0.0000 0.0000
1484 0.0000 0.0000
1485 0.0000 0.0000
1486 0.0000 0.0000
1487 0.0000 0.0000
1488 0.0000 0.0000
1489 7.4615 2.6491
1490 7.6667 1.7764
1491 6.9231 1.5914
1492 8.1579 1.8712
1493 7.4375 1.7309
1494 8.1176 2.7628
1495 7.1818 2.5519
1496 8.7931 1.7096
1497 0.0000 0.0000
1498 0.0000 0.0000
1499 0.0000 0.0000
1500 0.0000 0.0000
1501 0.0000 0.0000
1502 0.0000 0.0000
1503 0.0000 0.0000
1504 0.0000 0.0000
1505 0.0000 0.0000
1506 0.0000 0.0000
1507 0.0000 0.0000
1508 0.0000 0.0000
1509 0.0000 0.0000
1510 0.0000 0.0000
1511 0.0000 0.0000
1512 0.0000 0.0000
1513 7.8500 1.8241
1514 9.5500 2.0365
1515 8.8571 2.7652
1516 7.4000 1.8184
1517 7.9474 1.5035
1518 6.8462 1.7908
1519 7.7222 1.3665
1520 8.3529 2.5654
1521 0.0000 0.0000
1522 0.0000 0.0000
1523 0.0000 0.0000
1524 0.0000 0.0000
1525 0.0000 0.0000
1526 0.0000 0.0000
1527 0.0000 0.0000
1528 0.0000 0.0000
1529 0.0000 0.0000
1530 0.0000 0.0000
1531 0.0000 0.0000
1532 0.0000 0.0000
1533 0.0000 0.0000
1534 0.0000 0.0000
1535 0.0000 0.0000
1536 0.0000 0.0000
1537 8.2500 1.5877
1538 7.7391 1.7746
1539 7.8000 2.1354
1540 7.5294 1.8824
1541 7.6667 1.4142
1542 7.4000 1.6248
1543 7.0833 1.9773
1544 8.1364 1.6319
1545 0.0000 0.0000
1546 0.0000 0.0000
1547 0.0000 0.0000
1548 0.0000 0.0000
1549 0.0000 0.0000
1550 0.0000 0.0000
1551 0.0000 0.0000
1552 0.0000 0.0000
1553 0.0000 0.0000
1554 0.0000 0.0000
1555 0.0000 0.0000
1556 0.0000 0.0000
1557 0.0000 0.0000
1558 0.0000 0.0000
1559 0.0000 0.0000
1560 0.0000 0.0000
1561 7.3571 1.7971
1562 7.8235 1.7900
1563 7.6250 2.0578
1564 8.2778 2.2805
1565 8.8571 1.9588
1566 8.1053 2.2917
1567 6.5000 1.1802
1568 8.5294 2.0326
1569 0.0000 0.0000
1570 0.0000 0.0000
1571 0.0000 0.0000
1572 0.0000 0.0000
1573 0.0000 0.0000
1574 0.0000 0.0000
1575 0.0000 0.0000
1576 0.0000 0.0000
1577 0.0000 0.0000
1578 0.0000 0.0000
1579 0.0000 0.0000
1580 0.0000 0.0000
1581 0.0000 0.0000
1582 0.0000 0.0000
1583 0.0000 0.0000
1584 0.0000 0.0000
1585 7.7333 2.0483
1586 8.4286 2.4990
1587 7.2500 3.1656
1588 7.4286 2.0947
1589 7.7273 1.3545
1590 7.3571 2.1911
1591 7.2500 2.1262
1592 6.1667 1.4044
1593 0.0000 0.0000
1594 0.0000 0.0000
1595 0.0000 0.0000
1596 0.0000 0.0000
1597 0.0000 0.0000
1598 0.0000 0.0000
1599 0.0000 0.0000
1600 0.0000 0.0000
1601 0.0000 0.0000
1602 0.0000 0.0000
1603 0.0000 0.0000
1604 0.0000 0.0000
1605 0.0000 0.0000
1606 0.0000 0.0000
1607 0.0000 0.0000
1608 0.0000 0.0000
1609 7.4211 1.3501
1610 9.0556 2.2478
1611 8.5000 2.4074
1612 7.1579 2.1585
1613 8.0000 1.6432
1614 8.7826 1.8640
1615 7.3750 1.9645
1616 7.6923 2.1262
1617 0.0000 0.0000
1618 0.0000 0.0000
1619 0.0000 0.0000
1620 0.0000 0.0000
1621 0.0000 0.0000
1622 0.0000 0.0000
1623 0.0000 0.0000
1624 0.0000 0.0000
1625 0.0000 0.0000
1626 0.0000 0.0000
1627 0.0000 0.0000
1628 0.0000 0.0000
1629 0.0000 0.0000