ITEM: TIMESTEP
0
ITEM: NUMBER OF ATOMS
5184
ITEM: BOX BOUNDS pp pp pp
0.000000 74.083470
0.000000 74.083470
0.000000 74.083470
ITEM: ATOMS id c_arpn c_srpn
1 6.8462 1.7908
2 7.4375 1.4987
3 9.9000 2.9983
4 6.7500 1.4361
5 7.4000 1.7049
6 7.5217 1.2112
7 7.5000 1.8028
8 7.7000 1.9000
9 0.0000 0.0000
10 0.0000 0.0000
11 0.0000 0.0000
12 0.0000 0.0000
13 0.0000 0.0000
14 0.0000 0.0000
15 0.0000 0.0000
16 0.0000 0.0000
17 0.0000 0.0000
18 0.0000 0.0000
19 0.0000 0.0000
20 0.0000 0.0000
21 0.0000 0.0000
22 0.0000 0.0000
23 0.0000 0.0000
24 0.0000 0.0000
25 7.5238 1.3316
26 8.4800 2.0808
27 8.5000 2.4818
28 6.3333 1.4907
29 8.0000 1.5667
30 8.2000 2.3721
31 7.2308 2.5162
32 8.1667 1.4240
33 0.0000 0.0000
34 0.0000 0.0000
35 0.0000 0.0000
36 0.0000 0.0000
37 0.0000 0.0000
38 0.0000 0.0000
39 0.0000 0.0000
40 0.0000 0.0000
41 0.0000 0.0000
42 0.0000 0.0000
43 0.0000 0.0000
44 0.0000 0.0000
45 0.0000 0.0000
46 0.0000 0.0000
47 0.0000 0.0000
48 0.0000 0.0000
49 7.5000 1.5811
50 7.7222 1.2826
51 7.6842 1.5236
52 7.1875 1.1842
53 9.0455 2.5312
54 7.2000 1.2220
55 6.8889 0.6573
56 8.0000 1.9720
57 0.0000 0.0000
58 0.0000 0.0000
59 0.0000 0.0000
60 0.0000 0.0000
61 0.0000 0.0000
62 0.0000 0.0000
63 0.0000 0.0000
64 0.0000 0.0000
65 0.0000 0.0000
66 0.0000 0.0000
67 0.0000 0.0000
68 0.0000 0.0000
69 0.0000 0.0000
70 0.0000 0.0000
71 0.0000 0.0000
72 0.0000 0.0000
73 6.5000 1.9105
74 7.8095 1.4677
75 7.7059 1.7410
76 7.6667 1.5348
77 6.8571 1.5518
78 7.6667 2.0221
79 7.1429 1.7261
80 9.0952 2.4476
81 0.0000 0.0000
82 0.0000 0.0000
83 0.0000 0.0000
84 0.0000 0.0000
85 0.0000 0.0000
86 0.0000 0.0000
87 0.0000 0.0000
88 0.0000 0.0000
89 0.0000 0.0000
90 0.0000 0.0000
91 0.0000 0.0000
92 0.0000 0.0000
93 0.0000 0.0000
94 0.0000 0.0000
95 0.0000 0.0000
96 0.0000 0.0000
97 7.4545 2.1047
98 8.7368 2.4888
99 7.3333 1.9206
100 6.9286 1.5795
101 6.6667 1.5986
102 8.6250 3.0182
103 6.8182 1.4025
104 6.5000 1.9365
105 0.0000 0.0000
106 0.0000 0.0000
107 0.0000 0.0000
108 0.0000 0.0000
109 0.0000 0.0000
110 0.0000 0.0000
111 0.0000 0.0000
112 0.0000 0.0000
113 0.0000 0.0000
114 0.0000 0.0000
115 0.0000 0.0000
116 0.0000 0.0000
117 0.0000 0.0000
118 0.0000 0.0000
119 0.0000 0.0000
120 0.0000 0.0000
121 8.7500 2.0259
122 7.5000 1.7176
123 8.3793 1.4243
124 8.1579 1.9805
125 7.9000 1.7861
126 6.9333 1.3400
127 6.6364 0.8814
128 8.4375 1.5799
129 0.0000 0.0000
130 0.0000 0.0000
131 0.0000 0.0000
132 0.0000 0.0000
133 0.0000 0.0000
134 0.0000 0.0000
135 0.0000 0.0000
136 0.0000 0.0000
137 0.0000 0.0000
138 0.0000 0.0000
139 0.0000 0.0000
140 0.0000 0.0000
141 0.0000 0.0000
142 0.0000 0.0000
143 0.0000 0.0000
144 0.0000 0.0000
145 7.7059 1.7410
146 8.0000 2.3805
147 7.3846 2.0954
148 6.5385 1.3931
149 6.8462 1.7028
150 7.1333 1.8571
151 8.2174 1.5024
152 7.5000 1.3496
153 0.0000 0.0000
154 0.0000 0.0000
155 0.0000 0.0000
156 0.0000 0.0000
157 0.0000 0.0000
158 0.0000 0.0000
159 0.0000 0.0000
160 0.0000 0.0000
161 0.0000 0.0000
162 0.0000 0.0000
163 0.0000 0.0000
164 0.0000 0.0000
165 0.0000 0.0000
166 0.0000 0.0000
167 0.0000 0.0000
168 0.0000 0.0000
169 7.8889 1.1967
170 8.4737 2.1366
171 7.7143 2.3733
172 7.2778 1.9092
173 7.8333 1.5366
174 7.6000 1.8000
175 7.0000 1.0541
176 7.3125 1.8275
177 0.0000 0.0000
178 0.0000 0.0000
179 0.0000 0.0000
180 0.0000 0.0000
181 0.0000 0.0000
182 0.0000 0.0000
183 0.0000 0.0000
184 0.0000 0.0000
185 0.0000 0.0000
186 0.0000 0.0000
187 0.0000 0.0000
188 0.0000 0.0000
189 0.0000 0.0000
190 0.0000 0.0000
191 0.0000 0.0000
192 0.0000 0.0000
193 7.6667 0.8165
194 8.4211 2.3241
195 8.5217 1.3790
196 7.9000 2.9138
197 8.1538 1.7474
198 7.2308 1.3100
199 7.6111 1.6377
200 7.1765 1.6174
201 0.0000 0.0000
202 0.0000 0.0000
203 0.0000 0.0000
204 0.0000 0.0000
205 0.0000 0.0000
206 0.0000 0.0000
207 0.0000 0.0000
208 0.0000 0.0000
209 0.0000 0.0000
210 0.0000 0.0000
211 0.0000 0.0000
212 0.0000 0.0000
213 0.0000 0.0000
214 0.0000 0.0000
215 0.0000 0.0000
216 0.0000 0.0000
217 8.8571 2.4935
218 8.4286 1.5606
219 7.9500 1.4992
220 7.6667 2.6562
221 8.3684 1.8977
222 8.0714 1.7098
223 7.5000 2.0883
224 8.1579 2.2305
225 0.0000 0.0000
226 0.0000 0.0000
227 0.0000 0.0000
228 0.0000 0.0000
229 0.0000 0.0000
230 0.0000 0.0000
231 0.0000 0.0000
232 0.0000 0.0000
233 0.0000 0.0000
234 0.0000 0.0000
235 0.0000 0.0000
236 0.0000 0.0000
237 0.0000 0.0000
238 0.0000 0.0000
239 0.0000 0.0000
240 0.0000 0.0000
241 8.0556 2.2229
242 8.1875 1.7755
243 7.6500 1.0618
244 8.4375 3.1219
245 7.6364 2.1436
246 8.1250 1.5894
247 8.9167 1.6309
248 7.0833 1.3819
249 0.0000 0.0000
250 0.0000 0.0000
251 0.0000 0.0000
252 0.0000 0.0000
253 0.0000 0.0000
254 0.0000 0.0000
255 0.0000 0.0000
256 0.0000 0.0000
257 0.0000 0.0000
258 0.0000 0.0000
259 0.0000 0.0000
260 0.0000 0.0000
261 0.0000 0.0000
262 0.0000 0.0000
263 0.0000 0.0000
264 0.0000 0.0000
265 7.1000 2.1190
266 7.6667 1.1269
267 7.1875 1.2359
268 6.5385 1.6462
269 7.0000 1.4142
270 8.1000 2.1886
271 8.0370 1.5748
272 7.7000 1.8193
273 0.0000 0.0000
274 0.0000 0.0000
275 0.0000 0.0000
276 0.0000 0.0000
277 0.0000 0.0000
278 0.0000 0.0000
279 0.0000 0.0000
280 0.0000 0.0000
281 0.0000 0.0000
282 0.0000 0.0000
283 0.0000 0.0000
284 0.0000 0.0000
285 0.0000 0.0000
286 0.0000 0.0000
287 0.0000 0.0000
288 0.0000 0.0000
289 8.6087 1.4961
290 7.1176 2.0546
291 8.2222 2.1488
292 8.3810 2.1264
293 7.4286 1.3997
294 8.0909 0.8479
295 8.0000 2.3664
296 7.0625 1.5600
297 0.0000 0.0000
298 0.0000 0.0000
299 0.0000 0.0000
300 0.0000 0.0000
301 0.0000 0.0000
302 0.0000 0.0000
303 0.0000 0.0000
304 0.0000 0.0000
305 0.0000 0.0000
306 0.0000 0.0000
307 0.0000 0.0000
308 0.0000 0.0000
309 0.0000 0.0000
310 0.0000 0.0000
311 0.0000 0.0000
312 0.0000 0.0000
313 7.5000 1.5811
314 8.3125 1.9274
315 7.9310 1.7603
316 5.7143 2.1189
317 7.6111 1.3391
318 7.8000 2.8914
319 7.4000 1.6553
320 8.3333 2.3570
321 0.0000 0.0000
322 0.0000 0.0000
323 0.0000 0.0000
324 0.0000 0.0000
325 0.0000 0.0000
326 0.0000 0.0000
327 0.0000 0.0000
328 0.0000 0.0000
329 0.0000 0.0000
330 0.0000 0.0000
331 0.0000 0.0000
332 0.0000 0.0000
333 0.0000 0.0000
334 0.0000 0.0000
335 0.0000 0.0000
336 0.0000 0.0000
337 7.3333 1.9720
338 7.8571 2.2946
339 6.9412 1.3920
340 7.3529 2.0275
341 7.1500 1.1522
342 7.0000 1.3284
343 8.9333 3.4922
344 7.6250 1.9645
345 0.0000 0.0000
346 0.0000 0.0000
347 0.0000 0.0000
348 0.0000 0.0000
349 0.0000 0.0000
350 0.0000 0.0000
351 0.0000 0.0000
352 0.0000 0.0000
353 0.0000 0.0000
354 0.0000 0.0000
355 0.0000 0.0000
356 0.0000 0.0000
357 0.0000 0.0000
358 0.0000 0.0000
359 0.0000 0.0000
360 0.0000 0.0000
361 7.1429 2.0304
362 7.7500 1.5612
363 6.8571 1.4070
364 8.6667 3.0037
365 6.8182 2.3284
366 8.2941 2.2691
367 7.7143 1.3502
368 7.2632 1.8593
369 0.0000 0.0000
370 0.0000 0.0000
371 0.0000 0.0000
372 0.0000 0.0000
373 0.0000 0.0000
374 0.0000 0.0000
375 0.0000 0.0000
376 0.0000 0.0000
377 0.0000 0.0000
378 0.0000 0.0000
379 0.0000 0.0000
380 0.0000 0.0000
381 0.0000 0.0000
382 0.0000 0.0000
383 0.0000 0.0000
384 0.0000 0.0000
385 7.6842 1.2588
386 8.0625 2.9679
387 8.7619 2.2867
388 6.5000 1.7217
389 6.2500 0.9242
390 8.0714 3.4737
391 6.6364 1.2984
392 7.3750 2.5709
393 0.0000 0.0000
394 0.0000 0.0000
395 0.0000 0.0000
396 0.0000 0.0000
397 0.0000 0.0000
398 0.0000 0.0000
399 0.0000 0.0000
400 0.0000 0.0000
401 0.0000 0.0000
402 0.0000 0.0000
403 0.0000 0.0000
404 0.0000 0.0000
405 0.0000 0.0000
406 0.0000 0.0000
407 0.0000 0.0000
408 0.0000 0.0000
409 7.9167 2.4650
410 7.0833 1.1873
411 8.1333 2.7293
412 7.4286 2.2269
413 8.3333 1.9551
414 8.0741 1.9037
415 7.9412 1.6259
416 8.4815 1.5485
417 0.0000 0.0000
418 0.0000 0.0000
419 0.0000 0.0000
420 0.0000 0.0000
421 0.0000 0.0000
422 0.0000 0.0000
423 0.0000 0.0000
424 0.0000 0.0000
425 0.0000 0.0000
426 0.0000 0.0000
427 0.0000 0.0000
428 0.0000 0.0000
429 0.0000 0.0000
430 0.0000 0.0000
431 0.0000 0.0000
432 0.0000 0.0000
433 7.8947 1.6188
434 9.8846 2.4546
435 7.8462 2.2819
436 7.9583 1.2741
437 6.6667 1.6600
438 8.0476 2.3599
439 7.6957 1.3967
440 7.8333 1.1180
441 0.0000 0.0000
442 0.0000 0.0000
443 0.0000 0.0000
444 0.0000 0.0000
445 0.0000 0.0000
446 0.0000 0.0000
447 0.0000 0.0000
448 0.0000 0.0000
449 0.0000 0.0000
450 0.0000 0.0000
451 0.0000 0.0000
452 0.0000 0.0000
453 0.0000 0.0000
454 0.0000 0.0000
455 0.0000 0.0000
456 0.0000 0.0000
457 7.7222 1.7258
458 6.7857 1.5666
459 7.5714 1.4983
460 7.5238 1.0519
461 7.3125 1.3095
462 9.4286 2.4411
463 7.0000 2.0000
464 7.1053 1.0206
465 0.0000 0.0000
466 0.0000 0.0000
467 0.0000 0.0000
468 0.0000 0.0000
469 0.0000 0.0000
470 0.0000 0.0000
471 0.0000 0.0000
472 0.0000 0.0000
473 0.0000 0.0000
474 0.0000 0.0000
475 0.0000 0.0000
476 0.0000 0.0000
477 0.0000 0.0000
478 0.0000 0.0000
479 0.0000 0.0000
480 0.0000 0.0000
481 8.2222 1.9019
482 8.1667 1.7078
483 8.2000 2.1040
484 7.4211 1.9006
485 9.0000 2.7487
486 8.1000 2.1656
487 8.5833 1.5523
488 9.6552 2.4813
489 0.0000 0.0000
490 0.0000 0.0000
491 0.0000 0.0000
492 0.0000 0.0000
493 0.0000 0.0000
494 0.0000 0.0000
495 0.0000 0.0000
496 0.0000 0.0000
497 0.0000 0.0000
498 0.0000 0.0000
499 0.0000 0.0000
500 0.0000 0.0000
501 0.0000 0.0000
502 0.0000 0.0000
503 0.0000 0.0000
504 0.0000 0.0000
505 7.2000 1.7588
506 8.2222 2.0428
507 7.8182 2.5161
508 7.7500 1.9843
509 7.1000 2.8089
510 9.2500 3.3260
511 5.8889 0.5666
512 6.8750 1.4524
513 0.0000 0.0000
514 0.0000 0.0000
515 0.0000 0.0000
516 0.0000 0.0000
517 0.0000 0.0000
518 0.0000 0.0000
519 0.0000 0.0000
520 0.0000 0.0000
521 0.0000 0.0000
522 0.0000 0.0000
523 0.0000 0.0000
524 0.0000 0.0000
525 0.0000 0.0000
526 0.0000 0.0000
527 0.0000 0.0000
528 0.0000 0.0000
529 6.9231 1.9399
530 8.0714 2.0862
531 7.4118 1.3745
532 7.1667 1.0672
533 7.9444 1.8096
534 6.0000 1.7321
535 8.8000 1.9183
536 8.4211 2.7399
537 0.0000 0.0000
538 0.0000 0.0000
539 0.0000 0.0000
540 0.0000 0.0000
541 0.0000 0.0000
542 0.0000 0.0000
543 0.0000 0.0000
544 0.0000 0.0000
545 0.0000 0.0000
546 0.0000 0.0000
547 0.0000 0.0000
548 0.0000 0.0000
549 0.0000 0.0000
550 0.0000 0.0000
551 0.0000 0.0000
552 0.0000 0.0000
553 8.0667 2.4622
554 9.3182 2.3430
555 7.1333 1.5434
556 6.4545 1.1571
557 7.5000 1.5924
558 7.5000 2.3528
559 7.4762 1.3669
560 9.0000 2.3781
561 0.0000 0.0000
562 0.0000 0.0000
563 0.0000 0.0000
564 0.0000 0.0000
565 0.0000 0.0000
566 0.0000 0.0000
567 0.0000 0.0000
568 0.0000 0.0000
569 0.0000 0.0000
570 0.0000 0.0000
571 0.0000 0.0000
572 0.0000 0.0000
573 0.0000 0.0000
574 0.0000 0.0000
575 0.0000 0.0000
576 0.0000 0.0000
577 7.1250 1.8998
578 6.7273 1.9582
579 7.0000 1.7321
580 7.7692 2.4855
581 6.8333 1.6073
582 8.0000 1.0887
583 8.1579 1.9538
584 9.5000 3.1544
585 0.0000 0.0000
586 0.0000 0.0000
587 0.0000 0.0000
588 0.0000 0.0000
589 0.0000 0.0000
590 0.0000 0.0000
591 0.0000 0.0000
592 0.0000 0.0000
593 0.0000 0.0000
594 0.0000 0.0000
595 0.0000 0.0000
596 0.0000 0.0000
597 0.0000 0.0000
598 0.0000 0.0000
599 0.0000 0.0000
600 0.0000 0.0000
601 7.6875 1.7578
602 6.2857 1.0302
603 7.8182 1.9917
604 7.7143 1.7496
605 7.5833 3.1214
606 9.2857 2.7105
607 7.5294 1.4997
608 8.8077 1.7978
609 0.0000 0.0000
610 0.0000 0.0000
611 0.0000 0.0000
612 0.0000 0.0000
613 0.0000 0.0000
614 0.0000 0.0000
615 0.0000 0.0000
616 0.0000 0.0000
617 0.0000 0.0000
618 0.0000 0.0000
619 0.0000 0.0000
620 0.0000 0.0000
621 0.0000 0.0000
622 0.0000 0.0000
623 0.0000 0.0000
624 0.0000 0.0000
625 8.1739 1.4935
626 6.9000 1.7578
627 7.2727 2.2194
628 7.3750 1.6154
629 8.1250 2.4206
630 8.1053 2.0234
631 7.0714 2.3441
632 7.4000 1.3565
633 0.0000 0.0000
634 0.0000 0.0000
635 0.0000 0.0000
636 0.0000 0.0000
637 0.0000 0.0000
638 0.0000 0.0000
639 0.0000 0.0000
640 0.0000 0.0000
641 0.0000 0.0000
642 0.0000 0.0000
643 0.0000 0.0000
644 0.0000 0.0000
645 0.0000 0.0000
646 0.0000 0.0000
647 0.0000 0.0000
648 0.0000 0.0000
649 7.0833 2.0190
650 7.5556 1.5713
651 7.5294 1.9133
652 7.6111 1.3800
653 7.6250 1.3636
654 7.4211 1.6324
655 6.9231 1.3846
656 8.2609 1.7500
657 0.0000 0.0000
658 0.0000 0.0000
659 0.0000 0.0000
660 0.0000 0.0000
661 0.0000 0.0000
662 0.0000 0.0000
663 0.0000 0.0000
664 0.0000 0.0000
665 0.0000 0.0000
666 0.0000 0.0000
667 0.0000 0.0000
668 0.0000 0.0000
669 0.0000 0.0000
670 0.0000 0.0000
671 0.0000 0.0000
672 0.0000 0.0000
673 9.0476 2.2142
674 7.5263 1.4998
675 9.1364 2.6336
676 7.0625 1.1439
677 7.2143 1.5666
678 7.3529 1.5317
679 7.1667 1.5723
680 8.3000 3.6620
681 0.0000 0.0000
682 0.0000 0.0000
683 0.0000 0.0000
684 0.0000 0.0000
685 0.0000 0.0000
686 0.0000 0.0000
687 0.0000 0.0000
688 0.0000 0.0000
689 0.0000 0.0000
690 0.0000 0.0000
691 0.0000 0.0000
692 0.0000 0.0000
693 0.0000 0.0000
694 0.0000 0.0000
695 0.0000 0.0000
696 0.0000 0.0000
697 7.5625 1.5398
698 8.5000 1.6073
699 8.4444 2.2662
700 7.5882 2.3778
701 7.3333 1.1547
702 8.0500 1.5961
703 6.7500 1.6894
704 7.4706 1.7190
705 0.0000 0.0000
706 0.0000 0.0000
707 0.0000 0.0000
708 0.0000 0.0000
709 0.0000 0.0000
710 0.0000 0.0000
711 0.0000 0.0000
712 0.0000 0.0000
713 0.0000 0.0000
714 0.0000 0.0000
715 0.0000 0.0000
716 0.0000 0.0000
717 0.0000 0.0000
718 0.0000 0.0000
719 0.0000 0.0000
720 0.0000 0.0000
721 8.0588 2.0996
722 8.0000 2.0917
723 6.3846 1.7338
724 7.1000 2.1656
725 7.0909 2.2745
726 7.9286 2.3134
727 7.1538 2.5674
728 8.6316 1.7833
729 0.0000 0.0000
730 0.0000 0.0000
731 0.0000 0.0000
732 0.0000 0.0000
733 0.0000 0.0000
734 0.0000 0.0000
735 0.0000 0.0000
736 0.0000 0.0000
737 0.0000 0.0000
738 0.0000 0.0000
739 0.0000 0.0000
740 0.0000 0.0000
741 0.0000 0.0000
742 0.0000 0.0000
743 0.0000 0.0000
744 0.0000 0.0000
745 7.5882 1.8490
746 6.7143 1.3325
747 7.5333 1.4545
748 7.5882 1.4167
749 7.3750 2.1176
750 7.9412 2.2353
751 6.2000 0.6000
752 7.1111 2.3779
753 0.0000 0.0000
754 0.0000 0.0000
755 0.0000 0.0000
756 0.0000 0.0000
757 0.0000 0.0000
758 0.0000 0.0000
759 0.0000 0.0000
760 0.0000 0.0000
761 0.0000 0.0000
762 0.0000 0.0000
763 0.0000 0.0000
764 0.0000 0.0000
765 0.0000 0.0000
766 0.0000 0.0000
767 0.0000 0.0000
768 0.0000 0.0000
769 6.9286 1.7914
770 8.7500 2.1651
771 8.7917 1.7315
772 6.9286 1.6241
773 8.3500 2.2644
774 8.5833 1.8238
775 7.6000 1.6248
776 7.7059 2.3456
777 0.0000 0.0000
778 0.0000 0.0000
779 0.0000 0.0000
780 0.0000 0.0000
781 0.0000 0.0000
782 0.0000 0.0000
783 0.0000 0.0000
784 0.0000 0.0000
785 0.0000 0.0000
786 0.0000 0.0000
787 0.0000 0.0000
788 0.0000 0.0000
789 0.0000 0.0000
790 0.0000 0.0000
791 0.0000 0.0000
792 0.0000 0.0000
793 8.7368 2.4461
794 7.2727 2.0041
795 9.2632 2.5514
796 8.7917 2.7077
797 7.5625 1.7309
798 9.0476 2.6811
799 8.4706 2.5465
800 7.5000 1.2134
801 0.0000 0.0000
802 0.0000 0.0000
803 0.0000 0.0000
804 0.0000 0.0000
805 0.0000 0.0000
806 0.0000 0.0000
807 0.0000 0.0000
808 0.0000 0.0000
809 0.0000 0.0000
810 0.0000 0.0000
811 0.0000 0.0000
812 0.0000 0.0000
813 0.0000 0.0000
814 0.0000 0.0000
815 0.0000 0.0000
816 0.0000 0.0000
817 6.9231 1.7303
818 9.2593 2.1533
819 6.7143 2.1524
820 7.8182 2.0810
821 7.3846 2.1675
822 7.3158 1.3785
823 8.7895 2.5460
824 8.8333 2.2073
825 0.0000 0.0000
826 0.0000 0.0000
827 0.0000 0.0000
828 0.0000 0.0000
829 0.0000 0.0000
830 0.0000 0.0000
831 0.0000 0.0000
832 0.0000 0.0000
833 0.0000 0.0000
834 0.0000 0.0000
835 0.0000 0.0000
836 0.0000 0.0000
837 0.0000 0.0000
838 0.0000 0.0000
839 0.0000 0.0000
840 0.0000 0.0000
841 7.6154 2.2027
842 8.3529 2.1404
843 5.7143 1.3851
844 8.6316 2.9238
845 7.9474 1.4317
846 6.7500 1.2332
847 8.2778 2.1031
848 9.0323 1.6556
849 0.0000 0.0000
850 0.0000 0.0000
851 0.0000 0.0000
852 0.0000 0.0000
853 0.0000 0.0000
854 0.0000 0.0000
855 0.0000 0.0000
856 0.0000 0.0000
857 0.0000 0.0000
858 0.0000 0.0000
859 0.0000 0.0000
860 0.0000 0.0000
861 0.0000 0.0000
862 0.0000 0.0000
863 0.0000 0.0000
864 0.0000 0.0000
865 8.6957 1.6268
866 7.3333 2.5386
867 8.1579 2.4336
868 7.7895 1.1507
869 7.5833 1.8465
870 7.6667 2.1344
871 6.2222 1.6851
872 7.5789 2.1598
873 0.0000 0.0000
874 0.0000 0.0000
875 0.0000 0.0000
876 0.0000 0.0000
877 0.0000 0.0000
878 0.0000 0.0000
879 0.0000 0.0000
880 0.0000 0.0000
881 0.0000 0.0000
882 0.0000 0.0000
883 0.0000 0.0000
884 0.0000 0.0000
885 0.0000 0.0000
886 0.0000 0.0000
887 0.0000 0.0000
888 0.0000 0.0000
889 7.5000 2.2174
890 7.0000 2.1483
891 7.4545 1.3727
892 7.5385 1.6923
893 8.8182 2.8064
894 7.8235 2.0069
895 6.9375 1.7489
896 8.6667 2.5210
897 0.0000 0.0000
898 0.0000 0.0000
899 0.0000 0.0000
900 0.0000 0.0000
901 0.0000 0.0000
902 0.0000 0.0000
903 0.0000 0.0000
904 0.0000 0.0000
905 0.0000 0.0000
906 0.0000 0.0000
907 0.0000 0.0000
908 0.0000 0.0000
909 0.0000 0.0000
910 0.0000 0.0000
911 0.0000 0.0000
912 0.0000 0.0000
913 8.0476 1.3619
914 8.5000 2.0616
915 6.9167 1.2555
916 7.7692 2.8864
917 8.9583 1.8815
918 6.2500 1.5877
919 6.8235 1.6174
920 8.0000 2.1044
921 0.0000 0.0000
922 0.0000 0.0000
923 0.0000 0.0000
924 0.0000 0.0000
925 0.0000 0.0000
926 0.0000 0.0000
927 0.0000 0.0000
928 0.0000 0.0000
929 0.0000 0.0000
930 0.0000 0.0000
931 0.0000 0.0000
932 0.0000 0.0000
933 0.0000 0.0000
934 0.0000 0.0000
935 0.0000 0.0000
936 0.0000 0.0000
937 7.7857 2.3658
938 8.6957 1.8982
939 7.6842 2.0014
940 7.0000 1.6583
941 8.0000 1.5635
942 7.3571 1.3420
943 7.7500 1.9203
944 8.3500 1.5580
945 0.0000 0.0000
946 0.0000 0.0000
947 0.0000 0.0000
948 0.0000 0.0000
949 0.0000 0.0000
950 0.0000 0.0000
951 0.0000 0.0000
952 0.0000 0.0000
953 0.0000 0.0000
954 0.0000 0.0000
955 0.0000 0.0000
956 0.0000 0.0000
957 0.0000 0.0000
958 0.0000 0.0000
959 0.0000 0.0000
960 0.0000 0.0000
961 8.3500 2.1512
962 7.6471 1.9983
963 7.6471 1.5317
964 7.1538 1.7028
965 7.0667 1.3888
966 7.1667 2.6719
967 7.7692 2.1538
968 8.6154 1.9822
969 0.0000 0.0000
970 0.0000 0.0000
971 0.0000 0.0000
972 0.0000 0.0000
973 0.0000 0.0000
974 0.0000 0.0000
975 0.0000 0.0000
976 0.0000 0.0000
977 0.0000 0.0000
978 0.0000 0.0000
979 0.0000 0.0000
980 0.0000 0.0000
981 0.0000 0.0000
982 0.0000 0.0000
983 0.0000 0.0000
984 0.0000 0.0000
985 6.5833 1.2555
986 5.7500 1.0897
987 8.0952 2.0680
988 7.1667 1.9508
989 7.5714 2.2902
990 7.8889 2.4242
991 7.2222 1.4359
992 9.0870 2.3390
993 0.0000 0.0000
994 0.0000 0.0000
995 0.0000 0.0000
996 0.0000 0.0000
997 0.0000 0.0000
998 0.0000 0.0000
999 0.0000 0.0000
1000 0.0000 0.0000
1001 0.0000 0.0000
1002 0.0000 0.0000
1003 0.0000 0.0000
1004 0.0000 0.0000
1005 0.0000 0.0000
1006 0.0000 0.0000
1007 0.0000 0.0000
1008 0.0000 0.0000
1009 6.7333 1.0625
1010 7.3529 1.7470
1011 7.5000 2.0959
1012 6.6250 2.0578
1013 7.0714 1.2227
1014 8.5500 2.6921
1015 7.8824 1.8750
1016 7.4000 1.7049
1017 0.0000 0.0000
1018 0.0000 0.0000
1019 0.0000 0.0000
1020 0.0000 0.0000
1021 0.0000 0.0000
1022 0.0000 0.0000
1023 0.0000 0.0000
1024 0.0000 0.0000
1025 0.0000 0.0000
1026 0.0000 0.0000
1027 0.0000 0.0000
1028 0.0000 0.0000
1029 0.0000 0.0000
1030 0.0000 0.0000
1031 0.0000 0.0000
1032 0.0000 0.0000
1033 9.3182 2.6864
1034 8.1667 1.8409
1035 7.3333 1.5635
1036 7.4444 1.7708
1037 7.5882 1.2861
1038 8.4091 1.6141
1039 7.1818 2.2890
1040 8.3810 1.9875
1041 0.0000 0.0000
1042 0.0000 0.0000
1043 0.0000 0.0000
1044 0.0000 0.0000
1045 0.0000 0.0000
1046 0.0000 0.0000
1047 0.0000 0.0000
1048 0.0000 0.0000
1049 0.0000 0.0000
1050 0.0000 0.0000
1051 0.0000 0.0000
1052 0.0000 0.0000
1053 0.0000 0.0000
1054 0.0000 0.0000
1055 0.0000 0.0000
1056 0.0000 0.0000
1057 7.9286 2.4338
1058 7.6875 1.7578
1059 8.8235 2.3573
1060 7.4615 1.7809
1061 8.0625 1.8864
1062 6.1429 3.0905
1063 8.6364 2.5857
1064 7.3750 2.0879
1065 0.0000 0.0000
1066 0.0000 0.0000
1067 0.0000 0.0000
1068 0.0000 0.0000
1069 0.0000 0.0000
1070 0.0000 0.0000
1071 0.0000 0.0000
1072 0.0000 0.0000
1073 0.0000 0.0000
1074 0.0000 0.0000
1075 0.0000 0.0000
1076 0.0000 0.0000
1077 0.0000 0.0000
1078 0.0000 0.0000
1079 0.0000 0.0000
1080 0.0000 0.0000
1081 6.3846 1.6888
1082 7.6000 2.1229
1083 7.5000 1.9548
1084 8.0000 1.0541
1085 7.0000 0.9701
1086 6.4167 1.1873
1087 8.2857 1.9060
1088 7.4667 1.5861
1089 0.0000 0.0000
1090 0.0000 0.0000
1091 0.0000 0.0000
1092 0.0000 0.0000
1093 0.0000 0.0000
1094 0.0000 0.0000
1095 0.0000 0.0000
1096 0.0000 0.0000
1097 0.0000 0.0000
1098 0.0000 0.0000
1099 0.0000 0.0000
1100 0.0000 0.0000
1101 0.0000 0.0000
1102 0.0000 0.0000
1103 0.0000 0.0000
1104 0.0000 0.0000
1105 7.3333 1.5456
1106 7.5714 1.8790
1107 8.0000 1.8787
1108 8.6667 2.6034
1109 8.3846 2.4032
1110 7.6154 1.7338
1111 7.7500 1.7284
1112 5.9091 1.1642
1113 0.0000 0.0000
1114 0.0000 0.0000
1115 0.0000 0.0000
1116 0.0000 0.0000
1117 0.0000 0.0000
1118 0.0000 0.0000
1119 0.0000 0.0000
1120 0.0000 0.0000
1121 0.0000 0.0000
1122 0.0000 0.0000
1123 0.0000 0.0000
1124 0.0000 0.0000
1125 0.0000 0.0000
1126 0.0000 0.0000
1127 0.0000 0.0000
1128 0.0000 0.0000
1129 7.5385 2.2400
1130 6.3571 0.7178
1131 6.8333 1.4625
1132 8.0000 2.5420
1133 7.1667 2.6087
1134 7.7333 1.5261
1135 7.4615 1.5988
1136 7.6875 1.6093
1137 0.0000 0.0000
1138 0.0000 0.0000
1139 0.0000 0.0000
1140 0.0000 0.0000
1141 0.0000 0.0000
1142 0.0000 0.0000
1143 0.0000 0.0000
1144 0.0000 0.0000
1145 0.0000 0.0000
1146 0.0000 0.0000
1147 0.0000 0.0000
1148 0.0000 0.0000
1149 0.0000 0.0000
1150 0.0000 0.0000
1151 0.0000 0.0000
1152 0.0000 0.0000
1153 7.2308 1.6712
1154 7.3333 3.4960
1155 8.1333 2.3907
1156 7.3571 1.6304
1157 8.8889 2.4920
1158 7.8000 2.0396
1159 7.9333 1.9482
1160 8.3478 1.6314
1161 0.0000 0.0000
1162 0.0000 0.0000
1163 0.0000 0.0000
1164 0.0000 0.0000
1165 0.0000 0.0000
1166 0.0000 0.0000
1167 0.0000 0.0000
1168 0.0000 0.0000
1169 0.0000 0.0000
1170 0.0000 0.0000
1171 0.0000 0.0000
1172 0.0000 0.0000
1173 0.0000 0.0000
1174 0.0000 0.0000
1175 0.0000 0.0000
1176 0.0000 0.0000
1177 8.8421 2.7196
1178 8.3600 1.6219
1179 7.3333 1.8499
1180 6.3571 1.7158
1181 8.0952 1.7703
1182 8.1429 2.2315
1183 6.9000 2.6249
1184 7.5000 1.5723
1185 0.0000 0.0000
1186 0.0000 0.0000
1187 0.0000 0.0000
1188 0.0000 0.0000
1189 0.0000 0.0000
1190 0.0000 0.0000
1191 0.0000 0.0000
1192 0.0000 0.0000
1193 0.0000 0.0000
1194 0.0000 0.0000
1195 0.0000 0.0000
1196 0.0000 0.0000
1197 0.0000 0.0000
1198 0.0000 0.0000
1199 0.0000 0.0000
1200 0.0000 0.0000
1201 6.8000 1.6613
1202 6.8333 2.4777
1203 6.6000 2.0591
1204 7.6875 2.1130
1205 7.3571 1.5860
1206 7.0000 1.5916
1207 9.0417 1.8366
1208 7.3333 1.3984
1209 0.0000 0.0000
1210 0.0000 0.0000
1211 0.0000 0.0000
1212 0.0000 0.0000
1213 0.0000 0.0000
1214 0.0000 0.0000
1215 0.0000 0.0000
1216 0.0000 0.0000
1217 0.0000 0.0000
1218 0.0000 0.0000
1219 0.0000 0.0000
1220 0.0000 0.0000
1221 0.0000 0.0000
1222 0.0000 0.0000
1223 0.0000 0.0000
1224 0.0000 0.0000
1225 7.7500 1.0897
1226 7.5000 2.2079
1227 8.7857 3.6680
1228 7.8333 1.7401
1229 7.6250 2.6190
1230 8.0714 2.0341
1231 8.1765 2.1757
1232 7.3571 1.1715
1233 0.0000 0.0000
1234 0.0000 0.0000
1235 0.0000 0.0000
1236 0.0000 0.0000
1237 0.0000 0.0000
1238 0.0000 0.0000
1239 0.0000 0.0000
1240 0.0000 0.0000
1241 0.0000 0.0000
1242 0.0000 0.0000
1243 0.0000 0.0000
1244 0.0000 0.0000
1245 0.0000 0.0000
1246 0.0000 0.0000
1247 0.0000 0.0000
1248 0.0000 0.0000
1249 8.0000 2.1693
1250 7.8125 2.6744
1251 8.1176 2.3485
1252 9.0000 2.5298
1253 7.1667 1.8634
1254 7.0000 1.5689
1255 8.7500 2.5125
1256 6.7857 1.2059
1257 0.0000 0.0000
1258 0.0000 0.0000
1259 0.0000 0.0000
1260 0.0000 0.0000
1261 0.0000 0.0000
1262 0.0000 0.0000
1263 0.0000 0.0000
1264 0.0000 0.0000
1265 0.0000 0.0000
1266 0.0000 0.0000
1267 0.0000 0.0000
1268 0.0000 0.0000
1269 0.0000 0.0000
1270 0.0000 0.0000
1271 0.0000 0.0000
1272 0.0000 0.0000
1273 8.4375 2.4992
1274 6.4167 1.1149
1275 6.9231 1.8589
1276 7.0000 1.3229
1277 7.0000 1.9612
1278 6.6154 1.2733
1279 7.5714 1.8145
1280 7.9231 2.1648
1281 0.0000 0.0000
1282 0.0000 0.0000
1283 0.0000 0.0000
1284 0.0000 0.0000
1285 0.0000 0.0000
1286 0.0000 0.0000
1287 0.0000 0.0000
1288 0.0000 0.0000
1289 0.0000 0.0000
1290 0.0000 0.0000
1291 0.0000 0.0000
1292 0.0000 0.0000
1293 0.0000 0.0000
1294 0.0000 0.0000
1295 0.0000 0.0000
1296 0.0000 0.0000
1297 7.8571 1.4238
1298 8.0588 2.0428
1299 8.6667 2.3805
1300 6.0000 2.0000
1301 8.3750 2.8257
1302 7.6111 1.7042
1303 7.1429 1.5972
1304 7.7895 1.7941
1305 0.0000 0.0000
1306 0.0000 0.0000
1307 0.0000 0.0000
1308 0.0000 0.0000
1309 0.0000 0.0000
1310 0.0000 0.0000
1311 0.0000 0.0000
1312 0.0000 0.0000
1313 0.0000 0.0000
1314 0.0000 0.0000
1315 0.0000 0.0000
1316 0.0000 0.0000
1317 0.0000 0.0000
1318 0.0000 0.0000
1319 0.0000 0.0000
1320 0.0000 0.0000
1321 7.8750 2.3684
1322 7.1538 1.5113
1323 8.1176 1.9061
1324 6.8667 1.4545
1325 6.4444 1.4229
1326 6.0000 1.3009
1327 6.8750 1.2183
1328 7.9167 1.6812
1329 0.0000 0.0000
1330 0.0000 0.0000
1331 0.0000 0.0000
1332 0.0000 0.0000
1333 0.0000 0.0000
1334 0.0000 0.0000
1335 0.0000 0.0000
1336 0.0000 0.0000
1337 0.0000 0.0000
1338 0.0000 0.0000
1339 0.0000 0.0000
1340 0.0000 0.0000
1341 0.0000 0.0000
1342 0.0000 0.0000
1343 0.0000 0.0000
1344 0.0000 0.0000
1345 8.4737 1.7582
1346 7.3333 1.9206
1347 7.7647 2.2104
1348 8.0000 2.1448
1349 7.2308 1.8462
1350 8.6471 2.4720
1351 7.9130 1.6128
1352 6.5455 0.7820
1353 0.0000 0.0000
1354 0.0000 0.0000
1355 0.0000 0.0000
1356 0.0000 0.0000
1357 0.0000 0.0000
1358 0.0000 0.0000
1359 0.0000 0.0000
1360 0.0000 0.0000
1361 0.0000 0.0000
1362 0.0000 0.0000
1363 0.0000 0.0000
1364 0.0000 0.0000
1365 0.0000 0.0000
1366 0.0000 0.0000
1367 0.0000 0.0000
1368 0.0000 0.0000
1369 8.1200 2.0459
1370 7.5625 1.7309
1371 7.7368 2.0734
1372 7.9375 1.8864
1373 8.6154 1.6659
1374 7.8889 2.3067
1375 6.9375 1.7128
1376 8.0000 2.3604
1377 0.0000 0.0000
1378 0.0000 0.0000
1379 0.0000 0.0000
1380 0.0000 0.0000
1381 0.0000 0.0000
1382 0.0000 0.0000
1383 0.0000 0.0000
1384 0.0000 0.0000
1385 0.0000 0.0000
1386 0.0000 0.0000
1387 0.0000 0.0000
1388 0.0000 0.0000
1389 0.0000 0.0000
1390 0.0000 0.0000
1391 0.0000 0.0000
1392 0.0000 0.0000
1393 7.5600 1.6512
1394 7.5333 1.6275
1395 8.0909 1.9285
1396 7.1111 2.2333
1397 7.6875 1.9912
1398 7.9524 1.2527
1399 7.6429 1.9859
1400 7.2500 1.5612
1401 0.0000 0.0000
1402 0.0000 0.0000
1403 0.0000 0.0000
1404 0.0000 0.0000
1405 0.0000 0.0000
1406 0.0000 0.0000
1407 0.0000 0.0000
1408 0.0000 0.0000
1409 0.0000 0.0000
1410 0.0000 0.0000
1411 0.0000 0.0000
1412 0.0000 0.0000
1413 0.0000 0.0000
1414 0.0000 0.0000
1415 0.0000 0.0000
1416 0.0000 0.0000
1417 7.2500 2.2032
1418 8.5000 2.8473
1419 6.8571 1.7670
1420 7.2143 1.6978
1421 8.4706 2.0613
1422 8.1429 2.3862
1423 6.2727 1.1355
1424 6.8235 1.2478
1425 0.0000 0.0000
1426 0.0000 0.0000
1427 0.0000 0.0000
1428 0.0000 0.0000
1429 0.0000 0.0000
1430 0.0000 0.0000
1431 0.0000 0.0000
1432 0.0000 0.0000
1433 0.0000 0.0000
1434 0.0000 0.0000
1435 0.0000 0.0000
1436 0.0000 0.0000
1437 0.0000 0.0000
1438 0.0000 0.0000
1439 0.0000 0.0000
1440 0.0000 0.0000
1441 7.3750 0.9922
1442 8.1333 2.3343
1443 7.7500 1.5207
1444 7.5294 1.6844
1445 7.7143 1.5164
1446 8.3600 1.6942
1447 7.6000 1.9253
1448 6.6364 1.7201
1449 0.0000 0.0000
1450 0.0000 0.0000
1451 0.0000 0.0000
1452 0.0000 0.0000
1453 0.0000 0.0000
1454 0.0000 0.0000
1455 0.0000 0.0000
1456 0.0000 0.0000
1457 0.0000 0.0000
1458 0.0000 0.0000
1459 0.0000 0.0000
1460 0.0000 0.0000
1461 0.0000 0.0000
1462 0.0000 0.0000
1463 0.0000 0.0000
1464 0.0000 0.0000
1465 8.6000 1.9596
1466 7.3750 1.1110
1467 7.5714 1.6351
1468 8.7333 2.2050
1469 6.9167 1.8911
1470 6.6000 1.4514
1471 7.6250 2.2044
1472 7.3846 2.1318
1473 0.0000 0.0000
1474 0.0000 0.0000
1475 0.0000 0.0000
1476 0.0000 0.0000
1477 0.0000 0.0000
1478 0.0000 0.0000
1479 0.0000 0.0000
1480 0.0000 0.0000
1481 0.0000 0.0000
1482 0.0000 0.0000
1483 0.0000 0.0000
1484 0.0000 0.0000
1485 0.0000 0.0000
1486 0.0000 0.0000
1487 0.0000 0.0000
1488 0.0000 0.0000
1489 8.5909 1.7751
1490 7.7059 1.7745
1491 8.3333 2.7689
1492 7.6250 1.5762
1493 7.7895 1.7344
1494 8.5238 2.0844
1495 7.1538 1.4595
1496 8.5806 1.6019
1497 0.0000 0.0000
1498 0.0000 0.0000
1499 0.0000 0.0000
1500 0.0000 0.0000
1501 0.0000 0.0000
1502 0.0000 0.0000
1503 0.0000 0.0000
1504 0.0000 0.0000
1505 0.0000 0.0000
1506 0.0000 0.0000
1507 0.0000 0.0000
1508 0.0000 0.0000
1509 0.0000 0.0000
1510 0.0000 0.0000
1511 0.0000 0.0000
1512 0.0000 0.0000
1513 7.0000 2.1044
1514 6.5000 1.4318
1515 7.8333 3.3624
1516 7.5000 2.1016
1517 7.4444 1.9500
1518 7.5714 1.3997
1519 8.0625 1.9193
1520 8.8421 2.1340
1521 0.0000 0.0000
1522 0.0000 0.0000
1523 0.0000 0.0000
1524 0.0000 0.0000
1525 0.0000 0.0000
1526 0.0000 0.0000
1527 0.0000 0.0000
1528 0.0000 0.0000
1529 0.0000 0.0000
1530 0.0000 0.0000
1531 0.0000 0.0000
1532 0.0000 0.0000
1533 0.0000 0.0000
1534 0.0000 0.0000
1535 0.0000 0.0000
1536 0.0000 0.0000
1537 9.2857 1.7496
1538 7.2500 1.9843
1539 7.4286 2.0603
1540 6.6364 1.9199
1541 8.2174 1.8640
1542 8.3478 2.7914
1543 7.9565 1.6805
1544 7.0000 1.3166
1545 0.0000 0.0000
1546 0.0000 0.0000
1547 0.0000 0.0000
1548 0.0000 0.0000
1549 0.0000 0.0000
1550 0.0000 0.0000
1551 0.0000 0.0000
1552 0.0000 0.0000
1553 0.0000 0.0000
1554 0.0000 0.0000
1555 0.0000 0.0000
1556 0.0000 0.0000
1557 0.0000 0.0000
1558 0.0000 0.0000
1559 0.0000 0.0000
1560 0.0000 0.0000
1561 7.8750 1.9961
1562 7.3571 1.1715
1563 8.6400 1.7408
1564 8.2609 1.5939
1565 8.0000 1.2403
1566 7.2667 0.9286
1567 8.5000 2.4393
1568 7.2857 1.3851
1569 0.0000 0.0000
1570 0.0000 0.0000
1571 0.0000 0.0000
1572 0.0000 0.0000
1573 0.0000 0.0000
1574 0.0000 0.0000
1575 0.0000 0.0000
1576 0.0000 0.0000
1577 0.0000 0.0000
1578 0.0000 0.0000
1579 0.0000 0.0000
1580 0.0000 0.0000
1581 0.0000 0.0000
1582 0.0000 0.0000
1583 0.0000 0.0000
1584 0.0000 0.0000
1585 6.9091 1.7814
1586 6.8182 1.4659
1587 7.2222 1.4741
1588 7.1875 1.4238
1589 7.4000 1.4048
1590 7.6000 1.8547
1591 7.6429 1.3942
1592 7.0769 1.3279
1593 0.0000 0.0000
1594 0.0000 0.0000
1595 0.0000 0.0000
1596 0.0000 0.0000
1597 0.0000 0.0000
1598 0.0000 0.0000
1599 0.0000 0.0000
1600 0.0000 0.0000
1601 0.0000 0.0000
1602 0.0000 0.0000
1603 0.0000 0.0000
1604 0.0000 0.0000
1605 0.0000 0.0000
1606 0.0000 0.0000
1607 0.0000 0.0000
1608 0.0000 0.0000
1609 7.3750 1.4948
1610 7.5000 1.2956
1611 7.3125 1.8614
1612 9.0435 2.3679
1613 6.7273 1.4200
1614 8.2273 1.5354
1615 7.4118 1.6471
1616 7.3889 2.5416
1617 0.0000 0.0000
1618 0.0000 0.0000
1619 0.0000 0.0000
1620 0.0000 0.0000
1621 0.0000 0.0000
1622 0.0000 0.0000
1623 0.0000 0.0000
1624 0.0000 0.0000
1625 0.0000 0.0000
1626 0.0000 0.0000
1627 0.0000 0.0000
1628 0.0000 0.0000
1629 0.0000 0.0000