ITEM: TIMESTEP
0
ITEM: NUMBER OF ATOMS
5184
ITEM: BOX BOUNDS pp pp pp
0.000000 74.083470
0.000000 74.083470
0.000000 74.083470
ITEM: ATOMS id c_arpn c_srpn
1 8.8571 2.2738
2 8.2778 1.7577
3 7.8235 2.1209
4 7.6000 1.9253
5 7.8636 1.7657
6 8.2727 2.0041
7 6.9333 1.3888
8 6.3333 1.2472
9 0.0000 0.0000
10 0.0000 0.0000
11 0.0000 0.0000
12 0.0000 0.0000
13 0.0000 0.0000
14 0.0000 0.0000
15 0.0000 0.0000
16 0.0000 0.0000
17 0.0000 0.0000
18 0.0000 0.0000
19 0.0000 0.0000
20 0.0000 0.0000
21 0.0000 0.0000
22 0.0000 0.0000
23 0.0000 0.0000
24 0.0000 0.0000
25 7.5455 2.8401
26 6.5000 1.3601
27 7.8636 1.2171
28 7.9412 1.7311
29 7.2667 1.6519
30 8.4091 1.9922
31 7.5333 2.4184
32 8.4444 2.7126
33 0.0000 0.0000
34 0.0000 0.0000
35 0.0000 0.0000
36 0.0000 0.0000
37 0.0000 0.0000
38 0.0000 0.0000
39 0.0000 0.0000
40 0.0000 0.0000
41 0.0000 0.0000
42 0.0000 0.0000
43 0.0000 0.0000
44 0.0000 0.0000
45 0.0000 0.0000
46 0.0000 0.0000
47 0.0000 0.0000
48 0.0000 0.0000
49 7.2941 2.1629
50 7.0000 1.0377
51 8.5909 1.8503
52 7.8000 2.0067
53 6.4615 1.3368
54 8.1579 1.8712
55 7.3750 2.5464
56 8.3333 1.9206
57 0.0000 0.0000
58 0.0000 0.0000
59 0.0000 0.0000
60 0.0000 0.0000
61 0.0000 0.0000
62 0.0000 0.0000
63 0.0000 0.0000
64 0.0000 0.0000
65 0.0000 0.0000
66 0.0000 0.0000
67 0.0000 0.0000
68 0.0000 0.0000
69 0.0000 0.0000
70 0.0000 0.0000
71 0.0000 0.0000
72 0.0000 0.0000
73 7.3571 1.3420
74 7.9000 1.6703
75 7.6154 1.9030
76 7.5000 1.6073
77 7.0909 1.8807
78 6.9167 1.5523
79 8.0000 2.7568
80 6.3846 1.5461
81 0.0000 0.0000
82 0.0000 0.0000
83 0.0000 0.0000
84 0.0000 0.0000
85 0.0000 0.0000
86 0.0000 0.0000
87 0.0000 0.0000
88 0.0000 0.0000
89 0.0000 0.0000
90 0.0000 0.0000
91 0.0000 0.0000
92 0.0000 0.0000
93 0.0000 0.0000
94 0.0000 0.0000
95 0.0000 0.0000
96 0.0000 0.0000
97 8.5000 1.9714
98 6.7692 1.4226
99 8.0000 2.4279
100 7.0000 1.4606
101 7.1818 2.2490
102 7.7143 1.3502
103 7.7222 1.9665
104 7.7619 1.8492
105 0.0000 0.0000
106 0.0000 0.0000
107 0.0000 0.0000
108 0.0000 0.0000
109 0.0000 0.0000
110 0.0000 0.0000
111 0.0000 0.0000
112 0.0000 0.0000
113 0.0000 0.0000
114 0.0000 0.0000
115 0.0000 0.0000
116 0.0000 0.0000
117 0.0000 0.0000
118 0.0000 0.0000
119 0.0000 0.0000
120 0.0000 0.0000
121 8.7083 2.0712
122 8.2917 1.5405
123 8.2500 1.6993
124 7.0000 2.1742
125 8.1333 2.5526
126 8.6667 2.2111
127 7.7857 2.7563
128 7.8824 1.6762
129 0.0000 0.0000
130 0.0000 0.0000
131 0.0000 0.0000
132 0.0000 0.0000
133 0.0000 0.0000
134 0.0000 0.0000
135 0.0000 0.0000
136 0.0000 0.0000
137 0.0000 0.0000
138 0.0000 0.0000
139 0.0000 0.0000
140 0.0000 0.0000
141 0.0000 0.0000
142 0.0000 0.0000
143 0.0000 0.0000
144 0.0000 0.0000
145 7.8000 1.6310
146 8.3571 1.6521
147 8.0000 2.4083
148 7.5000 2.0959
149 7.8182 1.6689
150 6.9286 1.4863
151 6.8462 1.7028
152 7.7692 1.2187
153 0.0000 0.0000
154 0.0000 0.0000
155 0.0000 0.0000
156 0.0000 0.0000
157 0.0000 0.0000
158 0.0000 0.0000
159 0.0000 0.0000
160 0.0000 0.0000
161 0.0000 0.0000
162 0.0000 0.0000
163 0.0000 0.0000
164 0.0000 0.0000
165 0.0000 0.0000
166 0.0000 0.0000
167 0.0000 0.0000
168 0.0000 0.0000
169 7.0909 1.9285
170 6.9286 1.3344
171 7.8000 2.1664
172 7.0625 2.0146
173 7.3333 1.3499
174 7.5882 1.8805
175 8.2174 1.7927
176 7.9474 1.9049
177 0.0000 0.0000
178 0.0000 0.0000
179 0.0000 0.0000
180 0.0000 0.0000
181 0.0000 0.0000
182 0.0000 0.0000
183 0.0000 0.0000
184 0.0000 0.0000
185 0.0000 0.0000
186 0.0000 0.0000
187 0.0000 0.0000
188 0.0000 0.0000
189 0.0000 0.0000
190 0.0000 0.0000
191 0.0000 0.0000
192 0.0000 0.0000
193 8.3889 1.9759
194 8.6250 2.2696
195 5.0000 1.9149
196 9.1471 2.2769
197 8.3462 1.7529
198 7.5833 2.4310
199 7.3125 1.9274
200 8.3529 2.2476
201 0.0000 0.0000
202 0.0000 0.0000
203 0.0000 0.0000
204 0.0000 0.0000
205 0.0000 0.0000
206 0.0000 0.0000
207 0.0000 0.0000
208 0.0000 0.0000
209 0.0000 0.0000
210 0.0000 0.0000
211 0.0000 0.0000
212 0.0000 0.0000
213 0.0000 0.0000
214 0.0000 0.0000
215 0.0000 0.0000
216 0.0000 0.0000
217 8.5455 1.8022
218 5.7778 1.6851
219 7.7000 1.1000
220 7.0667 1.3888
221 7.4211 1.6324
222 7.4000 2.1541
223 7.1875 1.2854
224 7.8235 1.3388
225 0.0000 0.0000
226 0.0000 0.0000
227 0.0000 0.0000
228 0.0000 0.0000
229 0.0000 0.0000
230 0.0000 0.0000
231 0.0000 0.0000
232 0.0000 0.0000
233 0.0000 0.0000
234 0.0000 0.0000
235 0.0000 0.0000
236 0.0000 0.0000
237 0.0000 0.0000
238 0.0000 0.0000
239 0.0000 0.0000
240 0.0000 0.0000
241 9.3871 1.8259
242 7.0000 1.3093
243 7.3571 2.1249
244 8.4286 2.6108
245 7.9655 1.6291
246 6.1000 0.8307
247 7.5833 2.2531
248 7.5833 2.3965
249 0.0000 0.0000
250 0.0000 0.0000
251 0.0000 0.0000
252 0.0000 0.0000
253 0.0000 0.0000
254 0.0000 0.0000
255 0.0000 0.0000
256 0.0000 0.0000
257 0.0000 0.0000
258 0.0000 0.0000
259 0.0000 0.0000
260 0.0000 0.0000
261 0.0000 0.0000
262 0.0000 0.0000
263 0.0000 0.0000
264 0.0000 0.0000
265 7.8235 1.8546
266 8.5000 2.0125
267 6.4444 1.7069
268 7.8667 1.9619
269 7.2308 1.7608
270 7.6923 3.1716
271 7.9375 2.0757
272 6.8333 1.1426
273 0.0000 0.0000
274 0.0000 0.0000
275 0.0000 0.0000
276 0.0000 0.0000
277 0.0000 0.0000
278 0.0000 0.0000
279 0.0000 0.0000
280 0.0000 0.0000
281 0.0000 0.0000
282 0.0000 0.0000
283 0.0000 0.0000
284 0.0000 0.0000
285 0.0000 0.0000
286 0.0000 0.0000
287 0.0000 0.0000
288 0.0000 0.0000
289 7.6000 1.8547
290 7.3571 2.1911
291 8.8571 1.8070
292 7.8824 1.8750
293 7.5000 2.5981
294 7.6667 1.4530
295 8.3600 1.9976
296 7.8421 2.0841
297 0.0000 0.0000
298 0.0000 0.0000
299 0.0000 0.0000
300 0.0000 0.0000
301 0.0000 0.0000
302 0.0000 0.0000
303 0.0000 0.0000
304 0.0000 0.0000
305 0.0000 0.0000
306 0.0000 0.0000
307 0.0000 0.0000
308 0.0000 0.0000
309 0.0000 0.0000
310 0.0000 0.0000
311 0.0000 0.0000
312 0.0000 0.0000
313 7.8235 1.8226
314 8.0500 1.5961
315 8.0000 1.8787
316 7.3077 1.8967
317 8.6154 1.5951
318 6.8182 1.5851
319 8.0000 1.4142
320 6.8333 1.9076
321 0.0000 0.0000
322 0.0000 0.0000
323 0.0000 0.0000
324 0.0000 0.0000
325 0.0000 0.0000
326 0.0000 0.0000
327 0.0000 0.0000
328 0.0000 0.0000
329 0.0000 0.0000
330 0.0000 0.0000
331 0.0000 0.0000
332 0.0000 0.0000
333 0.0000 0.0000
334 0.0000 0.0000
335 0.0000 0.0000
336 0.0000 0.0000
337 7.7500 2.1262
338 6.7273 1.9113
339 8.0435 1.1970
340 7.0714 1.4863
341 6.6250 2.0578
342 6.9444 1.3933
343 8.2083 1.5270
344 6.6364 2.1436
345 0.0000 0.0000
346 0.0000 0.0000
347 0.0000 0.0000
348 0.0000 0.0000
349 0.0000 0.0000
350 0.0000 0.0000
351 0.0000 0.0000
352 0.0000 0.0000
353 0.0000 0.0000
354 0.0000 0.0000
355 0.0000 0.0000
356 0.0000 0.0000
357 0.0000 0.0000
358 0.0000 0.0000
359 0.0000 0.0000
360 0.0000 0.0000
361 8.3333 1.7951
362 8.1875 2.1857
363 6.3636 1.2264
364 7.3500 1.6515
365 8.0625 3.0097
366 6.5455 1.8763
367 8.8889 1.7916
368 8.8000 1.2220
369 0.0000 0.0000
370 0.0000 0.0000
371 0.0000 0.0000
372 0.0000 0.0000
373 0.0000 0.0000
374 0.0000 0.0000
375 0.0000 0.0000
376 0.0000 0.0000
377 0.0000 0.0000
378 0.0000 0.0000
379 0.0000 0.0000
380 0.0000 0.0000
381 0.0000 0.0000
382 0.0000 0.0000
383 0.0000 0.0000
384 0.0000 0.0000
385 6.7500 1.4790
386 7.7857 2.3958
387 7.7059 1.9025
388 8.6111 2.4069
389 8.1818 1.5266
390 7.4167 2.0599
391 8.7273 1.9113
392 7.9412 1.8620
393 0.0000 0.0000
394 0.0000 0.0000
395 0.0000 0.0000
396 0.0000 0.0000
397 0.0000 0.0000
398 0.0000 0.0000
399 0.0000 0.0000
400 0.0000 0.0000
401 0.0000 0.0000
402 0.0000 0.0000
403 0.0000 0.0000
404 0.0000 0.0000
405 0.0000 0.0000
406 0.0000 0.0000
407 0.0000 0.0000
408 0.0000 0.0000
409 8.0556 2.3915
410 9.0800 1.8957
411 8.2778 1.9946
412 6.7143 1.8681
413 6.8000 2.0881
414 7.0667 1.3888
415 7.7826 1.6407
416 6.6364 1.7721
417 0.0000 0.0000
418 0.0000 0.0000
419 0.0000 0.0000
420 0.0000 0.0000
421 0.0000 0.0000
422 0.0000 0.0000
423 0.0000 0.0000
424 0.0000 0.0000
425 0.0000 0.0000
426 0.0000 0.0000
427 0.0000 0.0000
428 0.0000 0.0000
429 0.0000 0.0000
430 0.0000 0.0000
431 0.0000 0.0000
432 0.0000 0.0000
433 7.8824 2.0258
434 7.0000 1.8974
435 9.1429 2.2946
436 7.4375 1.8017
437 7.3529 1.3258
438 7.7222 1.7577
439 7.6667 1.2848
440 7.9231 2.3684
441 0.0000 0.0000
442 0.0000 0.0000
443 0.0000 0.0000
444 0.0000 0.0000
445 0.0000 0.0000
446 0.0000 0.0000
447 0.0000 0.0000
448 0.0000 0.0000
449 0.0000 0.0000
450 0.0000 0.0000
451 0.0000 0.0000
452 0.0000 0.0000
453 0.0000 0.0000
454 0.0000 0.0000
455 0.0000 0.0000
456 0.0000 0.0000
457 7.8125 1.6286
458 7.9444 2.2229
459 7.6875 1.8614
460 8.2667 2.9318
461 6.0000 1.5492
462 8.4375 2.8716
463 7.3077 1.7269
464 7.0909 1.0833
465 0.0000 0.0000
466 0.0000 0.0000
467 0.0000 0.0000
468 0.0000 0.0000
469 0.0000 0.0000
470 0.0000 0.0000
471 0.0000 0.0000
472 0.0000 0.0000
473 0.0000 0.0000
474 0.0000 0.0000
475 0.0000 0.0000
476 0.0000 0.0000
477 0.0000 0.0000
478 0.0000 0.0000
479 0.0000 0.0000
480 0.0000 0.0000
481 7.8333 1.9508
482 7.5500 1.3592
483 8.5833 1.4118
484 6.6154 1.3323
485 8.4286 1.7063
486 6.3333 0.6236
487 8.2727 1.9349
488 7.5882 1.6109
489 0.0000 0.0000
490 0.0000 0.0000
491 0.0000 0.0000
492 0.0000 0.0000
493 0.0000 0.0000
494 0.0000 0.0000
495 0.0000 0.0000
496 0.0000 0.0000
497 0.0000 0.0000
498 0.0000 0.0000
499 0.0000 0.0000
500 0.0000 0.0000
501 0.0000 0.0000
502 0.0000 0.0000
503 0.0000 0.0000
504 0.0000 0.0000
505 7.1538 1.9154
506 7.2000 1.0296
507 7.2353 2.5095
508 6.8462 2.1428
509 7.6842 2.2255
510 8.5882 2.8088
511 7.4737 1.8171
512 8.3077 1.9956
513 0.0000 0.0000
514 0.0000 0.0000
515 0.0000 0.0000
516 0.0000 0.0000
517 0.0000 0.0000
518 0.0000 0.0000
519 0.0000 0.0000
520 0.0000 0.0000
521 0.0000 0.0000
522 0.0000 0.0000
523 0.0000 0.0000
524 0.0000 0.0000
525 0.0000 0.0000
526 0.0000 0.0000
527 0.0000 0.0000
528 0.0000 0.0000
529 7.8500 1.4925
530 7.8125 1.6665
531 8.4783 1.5844
532 7.9286 2.4630
533 6.5000 1.5546
534 7.7500 1.9526
535 6.5000 1.4434
536 9.2414 1.7351
537 0.0000 0.0000
538 0.0000 0.0000
539 0.0000 0.0000
540 0.0000 0.0000
541 0.0000 0.0000
542 0.0000 0.0000
543 0.0000 0.0000
544 0.0000 0.0000
545 0.0000 0.0000
546 0.0000 0.0000
547 0.0000 0.0000
548 0.0000 0.0000
549 0.0000 0.0000
550 0.0000 0.0000
551 0.0000 0.0000
552 0.0000 0.0000
553 7.7778 1.4741
554 8.1600 1.4881
555 8.5000 2.2913
556 8.6552 1.5817
557 9.0000 2.2478
558 8.7500 2.1457
559 8.0952 1.9249
560 7.6875 1.7578
561 0.0000 0.0000
562 0.0000 0.0000
563 0.0000 0.0000
564 0.0000 0.0000
565 0.0000 0.0000
566 0.0000 0.0000
567 0.0000 0.0000
568 0.0000 0.0000
569 0.0000 0.0000
570 0.0000 0.0000
571 0.0000 0.0000
572 0.0000 0.0000
573 0.0000 0.0000
574 0.0000 0.0000
575 0.0000 0.0000
576 0.0000 0.0000
577 7.5294 1.5384
578 6.4545 0.9875
579 8.5500 2.3974
580 8.0526 1.4680
581 8.4737 2.3923
582 7.5500 1.6576
583 7.2000 1.7588
584 8.2000 2.0149
585 0.0000 0.0000
586 0.0000 0.0000
587 0.0000 0.0000
588 0.0000 0.0000
589 0.0000 0.0000
590 0.0000 0.0000
591 0.0000 0.0000
592 0.0000 0.0000
593 0.0000 0.0000
594 0.0000 0.0000
595 0.0000 0.0000
596 0.0000 0.0000
597 0.0000 0.0000
598 0.0000 0.0000
599 0.0000 0.0000
600 0.0000 0.0000
601 7.5556 2.0062
602 8.6667 2.6458
603 8.0556 1.9285
604 6.2727 1.6006
605 8.1818 2.1666
606 7.2778 1.5565
607 7.6000 1.7146
608 8.3333 1.3333
609 0.0000 0.0000
610 0.0000 0.0000
611 0.0000 0.0000
612 0.0000 0.0000
613 0.0000 0.0000
614 0.0000 0.0000
615 0.0000 0.0000
616 0.0000 0.0000
617 0.0000 0.0000
618 0.0000 0.0000
619 0.0000 0.0000
620 0.0000 0.0000
621 0.0000 0.0000
622 0.0000 0.0000
623 0.0000 0.0000
624 0.0000 0.0000
625 8.5600 1.5768
626 8.0741 1.7411
627 8.2778 2.0495
628 6.8182 1.8982
629 7.1538 1.7908
630 7.2857 1.7900
631 7.1176 1.6045
632 6.2500 1.4790
633 0.0000 0.0000
634 0.0000 0.0000
635 0.0000 0.0000
636 0.0000 0.0000
637 0.0000 0.0000
638 0.0000 0.0000
639 0.0000 0.0000
640 0.0000 0.0000
641 0.0000 0.0000
642 0.0000 0.0000
643 0.0000 0.0000
644 0.0000 0.0000
645 0.0000 0.0000
646 0.0000 0.0000
647 0.0000 0.0000
648 0.0000 0.0000
649 7.2857 1.5779
650 8.2381 1.9495
651 8.1053 1.5524
652 8.7333 2.8158
653 6.5385 1.3931
654 7.8000 1.7963
655 7.7143 1.4357
656 7.6842 2.1777
657 0.0000 0.0000
658 0.0000 0.0000
659 0.0000 0.0000
660 0.0000 0.0000
661 0.0000 0.0000
662 0.0000 0.0000
663 0.0000 0.0000
664 0.0000 0.0000
665 0.0000 0.0000
666 0.0000 0.0000
667 0.0000 0.0000
668 0.0000 0.0000
669 0.0000 0.0000
670 0.0000 0.0000
671 0.0000 0.0000
672 0.0000 0.0000
673 7.8182 2.2890
674 6.8333 1.9076
675 7.0588 1.3920
676 7.2308 1.9277
677 8.1000 1.4799
678 7.7143 1.2778
679 8.0526 1.8489
680 7.6667 1.5635
681 0.0000 0.0000
682 0.0000 0.0000
683 0.0000 0.0000
684 0.0000 0.0000
685 0.0000 0.0000
686 0.0000 0.0000
687 0.0000 0.0000
688 0.0000 0.0000
689 0.0000 0.0000
690 0.0000 0.0000
691 0.0000 0.0000
692 0.0000 0.0000
693 0.0000 0.0000
694 0.0000 0.0000
695 0.0000 0.0000
696 0.0000 0.0000
697 9.1667 2.5000
698 8.0870 1.9091
699 9.3077 2.4459
700 7.6667 1.4142
701 7.0556 1.2235
702 8.2353 2.1565
703 9.1667 2.8916
704 8.3750 1.6024
705 0.0000 0.0000
706 0.0000 0.0000
707 0.0000 0.0000
708 0.0000 0.0000
709 0.0000 0.0000
710 0.0000 0.0000
711 0.0000 0.0000
712 0.0000 0.0000
713 0.0000 0.0000
714 0.0000 0.0000
715 0.0000 0.0000
716 0.0000 0.0000
717 0.0000 0.0000
718 0.0000 0.0000
719 0.0000 0.0000
720 0.0000 0.0000
721 7.8947 1.9972
722 8.1923 1.9615
723 7.6250 1.6910
724 7.0000 1.8811
725 8.0000 1.7150
726 6.7000 1.0050
727 8.1538 1.3782
728 7.9697 1.4246
729 0.0000 0.0000
730 0.0000 0.0000
731 0.0000 0.0000
732 0.0000 0.0000
733 0.0000 0.0000
734 0.0000 0.0000
735 0.0000 0.0000
736 0.0000 0.0000
737 0.0000 0.0000
738 0.0000 0.0000
739 0.0000 0.0000
740 0.0000 0.0000
741 0.0000 0.0000
742 0.0000 0.0000
743 0.0000 0.0000
744 0.0000 0.0000
745 7.6000 1.6248
746 8.0588 2.2088
747 9.0714 2.3441
748 8.2143 2.5685
749 8.2632 1.7119
750 6.4444 2.3623
751 7.6000 1.5297
752 7.9000 1.9468
753 0.0000 0.0000
754 0.0000 0.0000
755 0.0000 0.0000
756 0.0000 0.0000
757 0.0000 0.0000
758 0.0000 0.0000
759 0.0000 0.0000
760 0.0000 0.0000
761 0.0000 0.0000
762 0.0000 0.0000
763 0.0000 0.0000
764 0.0000 0.0000
765 0.0000 0.0000
766 0.0000 0.0000
767 0.0000 0.0000
768 0.0000 0.0000
769 8.0000 1.5954
770 7.1333 1.3098
771 7.9600 1.5094
772 8.3667 1.7792
773 7.9286 1.6241
774 8.3846 2.6469
775 6.4167 1.1149
776 6.8333 1.5184
777 0.0000 0.0000
778 0.0000 0.0000
779 0.0000 0.0000
780 0.0000 0.0000
781 0.0000 0.0000
782 0.0000 0.0000
783 0.0000 0.0000
784 0.0000 0.0000
785 0.0000 0.0000
786 0.0000 0.0000
787 0.0000 0.0000
788 0.0000 0.0000
789 0.0000 0.0000
790 0.0000 0.0000
791 0.0000 0.0000
792 0.0000 0.0000
793 8.1053 1.8323
794 7.0714 2.3134
795 7.2000 2.0396
796 7.7692 1.8040
797 9.2000 2.3580
798 7.6154 2.2715
799 8.1818 1.5266
800 10.3030 2.5404
801 0.0000 0.0000
802 0.0000 0.0000
803 0.0000 0.0000
804 0.0000 0.0000
805 0.0000 0.0000
806 0.0000 0.0000
807 0.0000 0.0000
808 0.0000 0.0000
809 0.0000 0.0000
810 0.0000 0.0000
811 0.0000 0.0000
812 0.0000 0.0000
813 0.0000 0.0000
814 0.0000 0.0000
815 0.0000 0.0000
816 0.0000 0.0000
817 8.0000 1.3377
818 7.1429 1.1249
819 8.7917 1.3534
820 7.8571 1.4569
821 6.9333 1.1235
822 7.5000 1.7627
823 7.5882 1.5740
824 6.6923 1.3803
825 0.0000 0.0000
826 0.0000 0.0000
827 0.0000 0.0000
828 0.0000 0.0000
829 0.0000 0.0000
830 0.0000 0.0000
831 0.0000 0.0000
832 0.0000 0.0000
833 0.0000 0.0000
834 0.0000 0.0000
835 0.0000 0.0000
836 0.0000 0.0000
837 0.0000 0.0000
838 0.0000 0.0000
839 0.0000 0.0000
840 0.0000 0.0000
841 7.6667 1.5348
842 6.7273 1.1355
843 10.2000 2.4000
844 8.9130 1.8157
845 7.0909 1.8807
846 7.6471 1.7470
847 6.7000 1.7916
848 8.5417 2.4321
849 0.0000 0.0000
850 0.0000 0.0000
851 0.0000 0.0000
852 0.0000 0.0000
853 0.0000 0.0000
854 0.0000 0.0000
855 0.0000 0.0000
856 0.0000 0.0000
857 0.0000 0.0000
858 0.0000 0.0000
859 0.0000 0.0000
860 0.0000 0.0000
861 0.0000 0.0000
862 0.0000 0.0000
863 0.0000 0.0000
864 0.0000 0.0000
865 7.6154 2.0954
866 7.6667 1.5776
867 7.2000 2.6382
868 7.4667 1.4996
869 8.1000 1.6093
870 8.6786 1.5823
871 6.7273 1.5428
872 8.0000 1.7195
873 0.0000 0.0000
874 0.0000 0.0000
875 0.0000 0.0000
876 0.0000 0.0000
877 0.0000 0.0000
878 0.0000 0.0000
879 0.0000 0.0000
880 0.0000 0.0000
881 0.0000 0.0000
882 0.0000 0.0000
883 0.0000 0.0000
884 0.0000 0.0000
885 0.0000 0.0000
886 0.0000 0.0000
887 0.0000 0.0000
888 0.0000 0.0000
889 7.5385 1.3931
890 8.3333 2.3851
891 8.3125 2.6153
892 7.4167 2.0999
893 7.6818 1.9630
894 8.1111 1.7603
895 8.2778 2.4901
896 8.8261 1.6326
897 0.0000 0.0000
898 0.0000 0.0000
899 0.0000 0.0000
900 0.0000 0.0000
901 0.0000 0.0000
902 0.0000 0.0000
903 0.0000 0.0000
904 0.0000 0.0000
905 0.0000 0.0000
906 0.0000 0.0000
907 0.0000 0.0000
908 0.0000 0.0000
909 0.0000 0.0000
910 0.0000 0.0000
911 0.0000 0.0000
912 0.0000 0.0000
913 7.0833 1.6562
914 7.1538 2.1428
915 9.0000 1.8516
916 7.8000 1.8330
917 8.7200 1.9702
918 8.8125 2.2699
919 7.0000 1.3720
920 8.2000 1.8868
921 0.0000 0.0000
922 0.0000 0.0000
923 0.0000 0.0000
924 0.0000 0.0000
925 0.0000 0.0000
926 0.0000 0.0000
927 0.0000 0.0000
928 0.0000 0.0000
929 0.0000 0.0000
930 0.0000 0.0000
931 0.0000 0.0000
932 0.0000 0.0000
933 0.0000 0.0000
934 0.0000 0.0000
935 0.0000 0.0000
936 0.0000 0.0000
937 8.3000 2.2605
938 7.9444 1.8096
939 8.0000 1.4951
940 7.5833 2.5644
941 8.1905 1.8418
942 8.5417 1.2576
943 6.2727 1.2129
944 8.3077 2.0897
945 0.0000 0.0000
946 0.0000 0.0000
947 0.0000 0.0000
948 0.0000 0.0000
949 0.0000 0.0000
950 0.0000 0.0000
951 0.0000 0.0000
952 0.0000 0.0000
953 0.0000 0.0000
954 0.0000 0.0000
955 0.0000 0.0000
956 0.0000 0.0000
957 0.0000 0.0000
958 0.0000 0.0000
959 0.0000 0.0000
960 0.0000 0.0000
961 10.4516 2.6007
962 8.1053 2.1249
963 7.9375 1.6759
964 8.0588 1.5519
965 8.2353 2.0155
966 6.9091 1.7297
967 7.9545 1.5805
968 8.0952 1.4444
969 0.0000 0.0000
970 0.0000 0.0000
971 0.0000 0.0000
972 0.0000 0.0000
973 0.0000 0.0000
974 0.0000 0.0000
975 0.0000 0.0000
976 0.0000 0.0000
977 0.0000 0.0000
978 0.0000 0.0000
979 0.0000 0.0000
980 0.0000 0.0000
981 0.0000 0.0000
982 0.0000 0.0000
983 0.0000 0.0000
984 0.0000 0.0000
985 8.1333 2.0613
986 8.7500 2.1651
987 7.0000 1.8516
988 7.5714 2.1618
989 8.0909 2.0206
990 7.6154 1.9822
991 8.3333 3.0368
992 8.2381 1.7703
993 0.0000 0.0000
994 0.0000 0.0000
995 0.0000 0.0000
996 0.0000 0.0000
997 0.0000 0.0000
998 0.0000 0.0000
999 0.0000 0.0000
1000 0.0000 0.0000
1001 0.0000 0.0000
1002 0.0000 0.0000
1003 0.0000 0.0000
1004 0.0000 0.0000
1005 0.0000 0.0000
1006 0.0000 0.0000
1007 0.0000 0.0000
1008 0.0000 0.0000
1009 6.6154 2.1675
1010 6.6667 2.6247
1011 8.4444 2.1140
1012 7.3750 2.1176
1013 8.2692 1.5332
1014 7.5000 1.6415
1015 7.3333 1.8856
1016 7.5000 2.2281
1017 0.0000 0.0000
1018 0.0000 0.0000
1019 0.0000 0.0000
1020 0.0000 0.0000
1021 0.0000 0.0000
1022 0.0000 0.0000
1023 0.0000 0.0000
1024 0.0000 0.0000
1025 0.0000 0.0000
1026 0.0000 0.0000
1027 0.0000 0.0000
1028 0.0000 0.0000
1029 0.0000 0.0000
1030 0.0000 0.0000
1031 0.0000 0.0000
1032 0.0000 0.0000
1033 5.8182 1.1923
1034 7.6429 1.9859
1035 8.3600 1.7636
1036 6.5000 1.7559
1037 8.2222 2.5068
1038 9.2500 2.4195
1039 7.4545 2.2305
1040 8.0000 2.7203
1041 0.0000 0.0000
1042 0.0000 0.0000
1043 0.0000 0.0000
1044 0.0000 0.0000
1045 0.0000 0.0000
1046 0.0000 0.0000
1047 0.0000 0.0000
1048 0.0000 0.0000
1049 0.0000 0.0000
1050 0.0000 0.0000
1051 0.0000 0.0000
1052 0.0000 0.0000
1053 0.0000 0.0000
1054 0.0000 0.0000
1055 0.0000 0.0000
1056 0.0000 0.0000
1057 5.6250 1.4948
1058 5.8889 1.5235
1059 7.1818 2.1242
1060 8.6429 3.3297
1061 7.0000 1.9215
1062 6.5714 1.4498
1063 7.2941 1.8073
1064 6.9231 1.9399
1065 0.0000 0.0000
1066 0.0000 0.0000
1067 0.0000 0.0000
1068 0.0000 0.0000
1069 0.0000 0.0000
1070 0.0000 0.0000
1071 0.0000 0.0000
1072 0.0000 0.0000
1073 0.0000 0.0000
1074 0.0000 0.0000
1075 0.0000 0.0000
1076 0.0000 0.0000
1077 0.0000 0.0000
1078 0.0000 0.0000
1079 0.0000 0.0000
1080 0.0000 0.0000
1081 8.3529 2.6109
1082 7.7647 2.4139
1083 6.7333 1.1235
1084 7.3333 1.6600
1085 8.2667 2.6449
1086 8.4706 2.5695
1087 8.6190 1.9143
1088 8.0000 2.0381
1089 0.0000 0.0000
1090 0.0000 0.0000
1091 0.0000 0.0000
1092 0.0000 0.0000
1093 0.0000 0.0000
1094 0.0000 0.0000
1095 0.0000 0.0000
1096 0.0000 0.0000
1097 0.0000 0.0000
1098 0.0000 0.0000
1099 0.0000 0.0000
1100 0.0000 0.0000
1101 0.0000 0.0000
1102 0.0000 0.0000
1103 0.0000 0.0000
1104 0.0000 0.0000
1105 7.5000 1.8333
1106 7.2308 1.4226
1107 8.2381 1.5401
1108 8.0952 2.2867
1109 8.2778 2.3524
1110 8.8333 2.9674
1111 8.2273 1.4750
1112 7.9524 1.8638
1113 0.0000 0.0000
1114 0.0000 0.0000
1115 0.0000 0.0000
1116 0.0000 0.0000
1117 0.0000 0.0000
1118 0.0000 0.0000
1119 0.0000 0.0000
1120 0.0000 0.0000
1121 0.0000 0.0000
1122 0.0000 0.0000
1123 0.0000 0.0000
1124 0.0000 0.0000
1125 0.0000 0.0000
1126 0.0000 0.0000
1127 0.0000 0.0000
1128 0.0000 0.0000
1129 6.8462 1.4595
1130 7.3846 1.7776
1131 8.8333 2.4777
1132 8.1250 2.1176
1133 8.1154 2.0443
1134 7.2500 1.5612
1135 7.6667 1.8559
1136 7.6923 2.4615
1137 0.0000 0.0000
1138 0.0000 0.0000
1139 0.0000 0.0000
1140 0.0000 0.0000
1141 0.0000 0.0000
1142 0.0000 0.0000
1143 0.0000 0.0000
1144 0.0000 0.0000
1145 0.0000 0.0000
1146 0.0000 0.0000
1147 0.0000 0.0000
1148 0.0000 0.0000
1149 0.0000 0.0000
1150 0.0000 0.0000
1151 0.0000 0.0000
1152 0.0000 0.0000
1153 6.5000 1.6073
1154 7.5333 1.7839
1155 7.8421 2.0841
1156 8.0556 1.7150
1157 6.8667 1.3098
1158 8.0952 1.4110
1159 9.1176 3.2154
1160 8.2174 1.7927
1161 0.0000 0.0000
1162 0.0000 0.0000
1163 0.0000 0.0000
1164 0.0000 0.0000
1165 0.0000 0.0000
1166 0.0000 0.0000
1167 0.0000 0.0000
1168 0.0000 0.0000
1169 0.0000 0.0000
1170 0.0000 0.0000
1171 0.0000 0.0000
1172 0.0000 0.0000
1173 0.0000 0.0000
1174 0.0000 0.0000
1175 0.0000 0.0000
1176 0.0000 0.0000
1177 7.7333 2.2351
1178 8.0556 1.6823
1179 8.7917 1.8480
1180 8.0526 2.3277
1181 7.2174 1.7435
1182 6.8889 2.2333
1183 8.0000 1.7150
1184 8.1250 2.0272
1185 0.0000 0.0000
1186 0.0000 0.0000
1187 0.0000 0.0000
1188 0.0000 0.0000
1189 0.0000 0.0000
1190 0.0000 0.0000
1191 0.0000 0.0000
1192 0.0000 0.0000
1193 0.0000 0.0000
1194 0.0000 0.0000
1195 0.0000 0.0000
1196 0.0000 0.0000
1197 0.0000 0.0000
1198 0.0000 0.0000
1199 0.0000 0.0000
1200 0.0000 0.0000
1201 8.0000 1.6733
1202 7.0000 1.3663
1203 7.7368 1.4812
1204 7.4286 1.7613
1205 8.6957 1.6268
1206 7.7727 1.9756
1207 9.0667 3.4345
1208 7.2500 2.1651
1209 0.0000 0.0000
1210 0.0000 0.0000
1211 0.0000 0.0000
1212 0.0000 0.0000
1213 0.0000 0.0000
1214 0.0000 0.0000
1215 0.0000 0.0000
1216 0.0000 0.0000
1217 0.0000 0.0000
1218 0.0000 0.0000
1219 0.0000 0.0000
1220 0.0000 0.0000
1221 0.0000 0.0000
1222 0.0000 0.0000
1223 0.0000 0.0000
1224 0.0000 0.0000
1225 8.0000 2.0331
1226 7.9375 1.4348
1227 6.7333 2.0155
1228 8.1500 1.9307
1229 7.6923 1.7709
1230 8.3929 1.8193
1231 7.5238 1.3316
1232 7.8148 1.5405
1233 0.0000 0.0000
1234 0.0000 0.0000
1235 0.0000 0.0000
1236 0.0000 0.0000
1237 0.0000 0.0000
1238 0.0000 0.0000
1239 0.0000 0.0000
1240 0.0000 0.0000
1241 0.0000 0.0000
1242 0.0000 0.0000
1243 0.0000 0.0000
1244 0.0000 0.0000
1245 0.0000 0.0000
1246 0.0000 0.0000
1247 0.0000 0.0000
1248 0.0000 0.0000
1249 7.0000 1.9272
1250 7.7619 1.1914
1251 8.8500 2.2422
1252 7.7500 2.0867
1253 8.3529 1.7803
1254 8.2400 1.8173
1255 8.0000 1.9467
1256 8.2500 2.3211
1257 0.0000 0.0000
1258 0.0000 0.0000
1259 0.0000 0.0000
1260 0.0000 0.0000
1261 0.0000 0.0000
1262 0.0000 0.0000
1263 0.0000 0.0000
1264 0.0000 0.0000
1265 0.0000 0.0000
1266 0.0000 0.0000
1267 0.0000 0.0000
1268 0.0000 0.0000
1269 0.0000 0.0000
1270 0.0000 0.0000
1271 0.0000 0.0000
1272 0.0000 0.0000
1273 7.5000 1.9875
1274 7.0526 1.8202
1275 6.6000 1.6852
1276 8.4667 2.0934
1277 9.3846 2.2201
1278 8.1053 1.6826
1279 6.6154 1.9822
1280 8.6190 2.0811
1281 0.0000 0.0000
1282 0.0000 0.0000
1283 0.0000 0.0000
1284 0.0000 0.0000
1285 0.0000 0.0000
1286 0.0000 0.0000
1287 0.0000 0.0000
1288 0.0000 0.0000
1289 0.0000 0.0000
1290 0.0000 0.0000
1291 0.0000 0.0000
1292 0.0000 0.0000
1293 0.0000 0.0000
1294 0.0000 0.0000
1295 0.0000 0.0000
1296 0.0000 0.0000
1297 7.9375 1.9193
1298 8.6190 2.3192
1299 7.6500 1.7400
1300 8.3636 1.7976
1301 6.2500 1.1637
1302 7.4118 1.4576
1303 7.8750 1.4524
1304 7.9474 1.2762
1305 0.0000 0.0000
1306 0.0000 0.0000
1307 0.0000 0.0000
1308 0.0000 0.0000
1309 0.0000 0.0000
1310 0.0000 0.0000
1311 0.0000 0.0000
1312 0.0000 0.0000
1313 0.0000 0.0000
1314 0.0000 0.0000
1315 0.0000 0.0000
1316 0.0000 0.0000
1317 0.0000 0.0000
1318 0.0000 0.0000
1319 0.0000 0.0000
1320 0.0000 0.0000
1321 7.3333 1.5184
1322 8.2353 2.2104
1323 9.0870 1.9762
1324 7.9412 1.8620
1325 8.6000 1.9849
1326 7.2000 1.9732
1327 7.7222 2.0495
1328 8.0625 2.9889
1329 0.0000 0.0000
1330 0.0000 0.0000
1331 0.0000 0.0000
1332 0.0000 0.0000
1333 0.0000 0.0000
1334 0.0000 0.0000
1335 0.0000 0.0000
1336 0.0000 0.0000
1337 0.0000 0.0000
1338 0.0000 0.0000
1339 0.0000 0.0000
1340 0.0000 0.0000
1341 0.0000 0.0000
1342 0.0000 0.0000
1343 0.0000 0.0000
1344 0.0000 0.0000
1345 7.3636 1.8227
1346 8.6111 1.8897
1347 8.1579 2.2540
1348 8.0000 2.0000
1349 8.7368 2.8625
1350 7.4444 2.0876
1351 7.3529 1.7470
1352 8.2857 2.0735
1353 0.0000 0.0000
1354 0.0000 0.0000
1355 0.0000 0.0000
1356 0.0000 0.0000
1357 0.0000 0.0000
1358 0.0000 0.0000
1359 0.0000 0.0000
1360 0.0000 0.0000
1361 0.0000 0.0000
1362 0.0000 0.0000
1363 0.0000 0.0000
1364 0.0000 0.0000
1365 0.0000 0.0000
1366 0.0000 0.0000
1367 0.0000 0.0000
1368 0.0000 0.0000
1369 8.2941 2.0512
1370 7.5625 1.4128
1371 7.5625 1.8017
1372 8.0000 2.7568
1373 7.6111 1.8300
1374 7.1538 1.6099
1375 7.2500 2.1937
1376 7.5385 1.9852
1377 0.0000 0.0000
1378 0.0000 0.0000
1379 0.0000 0.0000
1380 0.0000 0.0000
1381 0.0000 0.0000
1382 0.0000 0.0000
1383 0.0000 0.0000
1384 0.0000 0.0000
1385 0.0000 0.0000
1386 0.0000 0.0000
1387 0.0000 0.0000
1388 0.0000 0.0000
1389 0.0000 0.0000
1390 0.0000 0.0000
1391 0.0000 0.0000
1392 0.0000 0.0000
1393 6.4545 0.9875
1394 7.9333 1.9137
1395 7.1000 1.8947
1396 8.2500 1.6894
1397 7.0769 2.0554
1398 7.7222 1.6602
1399 8.0000 1.4552
1400 8.9615 2.2443
1401 0.0000 0.0000
1402 0.0000 0.0000
1403 0.0000 0.0000
1404 0.0000 0.0000
1405 0.0000 0.0000
1406 0.0000 0.0000
1407 0.0000 0.0000
1408 0.0000 0.0000
1409 0.0000 0.0000
1410 0.0000 0.0000
1411 0.0000 0.0000
1412 0.0000 0.0000
1413 0.0000 0.0000
1414 0.0000 0.0000
1415 0.0000 0.0000
1416 0.0000 0.0000
1417 8.3500 1.4925
1418 6.3750 1.2686
1419 9.1579 1.5648
1420 7.5385 2.4056
1421 8.3500 2.4346
1422 6.3333 1.8257
1423 6.4615 1.3931
1424 8.7778 1.8122
1425 0.0000 0.0000
1426 0.0000 0.0000
1427 0.0000 0.0000
1428 0.0000 0.0000
1429 0.0000 0.0000
1430 0.0000 0.0000
1431 0.0000 0.0000
1432 0.0000 0.0000
1433 0.0000 0.0000
1434 0.0000 0.0000
1435 0.0000 0.0000
1436 0.0000 0.0000
1437 0.0000 0.0000
1438 0.0000 0.0000
1439 0.0000 0.0000
1440 0.0000 0.0000
1441 7.8421 1.3865
1442 7.7222 1.8799
1443 7.9444 2.0131
1444 7.7143 1.6660
1445 8.6000 2.2891
1446 8.7778 1.6405
1447 6.7857 1.6978
1448 8.3333 1.5223
1449 0.0000 0.0000
1450 0.0000 0.0000
1451 0.0000 0.0000
1452 0.0000 0.0000
1453 0.0000 0.0000
1454 0.0000 0.0000
1455 0.0000 0.0000
1456 0.0000 0.0000
1457 0.0000 0.0000
1458 0.0000 0.0000
1459 0.0000 0.0000
1460 0.0000 0.0000
1461 0.0000 0.0000
1462 0.0000 0.0000
1463 0.0000 0.0000
1464 0.0000 0.0000
1465 7.2857 1.2778
1466 6.9231 1.5914
1467 7.9444 2.8377
1468 6.6667 1.6193
1469 8.2105 2.4404
1470 8.2500 1.8985
1471 7.0000 1.6733
1472 7.6316 1.4220
1473 0.0000 0.0000
1474 0.0000 0.0000
1475 0.0000 0.0000
1476 0.0000 0.0000
1477 0.0000 0.0000
1478 0.0000 0.0000
1479 0.0000 0.0000
1480 0.0000 0.0000
1481 0.0000 0.0000
1482 0.0000 0.0000
1483 0.0000 0.0000
1484 0.0000 0.0000
1485 0.0000 0.0000
1486 0.0000 0.0000
1487 0.0000 0.0000
1488 0.0000 0.0000
1489 7.5714 1.9898
1490 7.7222 2.1552
1491 8.0000 1.6036
1492 7.8333 1.5366
1493 8.2667 2.6949
1494 7.0000 1.5275
1495 8.2000 2.6382
1496 7.9500 2.3974
1497 0.0000 0.0000
1498 0.0000 0.0000
1499 0.0000 0.0000
1500 0.0000 0.0000
1501 0.0000 0.0000
1502 0.0000 0.0000
1503 0.0000 0.0000
1504 0.0000 0.0000
1505 0.0000 0.0000
1506 0.0000 0.0000
1507 0.0000 0.0000
1508 0.0000 0.0000
1509 0.0000 0.0000
1510 0.0000 0.0000
1511 0.0000 0.0000
1512 0.0000 0.0000
1513 7.8750 2.4206
1514 8.4118 2.7452
1515 7.3333 2.2111
1516 8.7778 1.7177
1517 7.3333 2.0221
1518 7.6471 2.0847
1519 7.5333 1.8571
1520 7.8125 2.4804
1521 0.0000 0.0000
1522 0.0000 0.0000
1523 0.0000 0.0000
1524 0.0000 0.0000
1525 0.0000 0.0000
1526 0.0000 0.0000
1527 0.0000 0.0000
1528 0.0000 0.0000
1529 0.0000 0.0000
1530 0.0000 0.0000
1531 0.0000 0.0000
1532 0.0000 0.0000
1533 0.0000 0.0000
1534 0.0000 0.0000
1535 0.0000 0.0000
1536 0.0000 0.0000
1537 7.7500 1.2196
1538 8.8000 1.8601
1539 8.1579 1.4961
1540 8.3750 2.5464
1541 7.5714 2.2269
1542 7.4615 1.8653
1543 7.1667 1.8634
1544 7.8824 1.9669
1545 0.0000 0.0000
1546 0.0000 0.0000
1547 0.0000 0.0000
1548 0.0000 0.0000
1549 0.0000 0.0000
1550 0.0000 0.0000
1551 0.0000 0.0000
1552 0.0000 0.0000
1553 0.0000 0.0000
1554 0.0000 0.0000
1555 0.0000 0.0000
1556 0.0000 0.0000
1557 0.0000 0.0000
1558 0.0000 0.0000
1559 0.0000 0.0000
1560 0.0000 0.0000
1561 7.2667 1.4817
1562 7.1000 2.5475
1563 7.8462 1.8122
1564 7.6250 1.9645
1565 8.1579 1.7848
1566 8.7917 1.9144
1567 7.7059 1.7410
1568 8.7083 1.8138
1569 0.0000 0.0000
1570 0.0000 0.0000
1571 0.0000 0.0000
1572 0.0000 0.0000
1573 0.0000 0.0000
1574 0.0000 0.0000
1575 0.0000 0.0000
1576 0.0000 0.0000
1577 0.0000 0.0000
1578 0.0000 0.0000
1579 0.0000 0.0000
1580 0.0000 0.0000
1581 0.0000 0.0000
1582 0.0000 0.0000
1583 0.0000 0.0000
1584 0.0000 0.0000
1585 7.9444 1.7150
1586 7.2000 1.6813
1587 6.4167 1.6562
1588 8.3913 1.6613
1589 7.0000 1.7889
1590 6.5000 1.2042
1591 7.5000 1.5000
1592 7.6154 2.2715
1593 0.0000 0.0000
1594 0.0000 0.0000
1595 0.0000 0.0000
1596 0.0000 0.0000
1597 0.0000 0.0000
1598 0.0000 0.0000
1599 0.0000 0.0000
1600 0.0000 0.0000
1601 0.0000 0.0000
1602 0.0000 0.0000
1603 0.0000 0.0000
1604 0.0000 0.0000
1605 0.0000 0.0000
1606 0.0000 0.0000
1607 0.0000 0.0000
1608 0.0000 0.0000
1609 8.6667 3.1552
1610 9.6000 2.7398
1611 6.9412 1.7311
1612 7.7368 1.7724
1613 8.2273 1.8074
1614 7.7368 1.6493
1615 7.0000 1.6733
1616 7.5625 1.8017
1617 0.0000 0.0000
1618 0.0000 0.0000
1619 0.0000 0.0000
1620 0.0000 0.0000
1621 0.0000 0.0000
1622 0.0000 0.0000
1623 0.0000 0.0000
1624 0.0000 0.0000
1625 0.0000 0.0000
1626 0.0000 0.0000
1627 0.0000 0.0000
1628 0.0000 0.0000