ITEM: TIMESTEP
0
ITEM: NUMBER OF ATOMS
5184
ITEM: BOX BOUNDS pp pp pp
0.000000 74.083470
0.000000 74.083470
0.000000 74.083470
ITEM: ATOMS id c_arpn c_srpn
1 6.8235 1.3820
2 6.7000 2.1932
3 7.8824 2.2198
4 7.4737 1.4998
5 7.2222 1.8725
6 6.7500 1.5877
7 7.6111 1.9759
8 7.7895 1.9622
9 0.0000 0.0000
10 0.0000 0.0000
11 0.0000 0.0000
12 0.0000 0.0000
13 0.0000 0.0000
14 0.0000 0.0000
15 0.0000 0.0000
16 0.0000 0.0000
17 0.0000 0.0000
18 0.0000 0.0000
19 0.0000 0.0000
20 0.0000 0.0000
21 0.0000 0.0000
22 0.0000 0.0000
23 0.0000 0.0000
24 0.0000 0.0000
25 7.7222 1.5918
26 7.4375 1.9990
27 8.4091 2.0595
28 7.0625 1.3448
29 7.0000 2.2913
30 8.5238 2.0614
31 7.9333 1.7308
32 7.8235 2.1485
33 0.0000 0.0000
34 0.0000 0.0000
35 0.0000 0.0000
36 0.0000 0.0000
37 0.0000 0.0000
38 0.0000 0.0000
39 0.0000 0.0000
40 0.0000 0.0000
41 0.0000 0.0000
42 0.0000 0.0000
43 0.0000 0.0000
44 0.0000 0.0000
45 0.0000 0.0000
46 0.0000 0.0000
47 0.0000 0.0000
48 0.0000 0.0000
49 7.9500 1.7741
50 7.9412 2.4608
51 6.7000 1.7916
52 8.2632 2.8255
53 8.5500 2.4592
54 7.5556 1.6405
55 7.7000 1.6763
56 7.6842 1.6875
57 0.0000 0.0000
58 0.0000 0.0000
59 0.0000 0.0000
60 0.0000 0.0000
61 0.0000 0.0000
62 0.0000 0.0000
63 0.0000 0.0000
64 0.0000 0.0000
65 0.0000 0.0000
66 0.0000 0.0000
67 0.0000 0.0000
68 0.0000 0.0000
69 0.0000 0.0000
70 0.0000 0.0000
71 0.0000 0.0000
72 0.0000 0.0000
73 7.8421 1.9538
74 7.8667 2.1250
75 8.1923 2.2017
76 7.7000 1.2689
77 7.4444 1.4990
78 7.0000 1.4142
79 8.4400 2.2464
80 8.0000 1.7472
81 0.0000 0.0000
82 0.0000 0.0000
83 0.0000 0.0000
84 0.0000 0.0000
85 0.0000 0.0000
86 0.0000 0.0000
87 0.0000 0.0000
88 0.0000 0.0000
89 0.0000 0.0000
90 0.0000 0.0000
91 0.0000 0.0000
92 0.0000 0.0000
93 0.0000 0.0000
94 0.0000 0.0000
95 0.0000 0.0000
96 0.0000 0.0000
97 7.8421 1.3865
98 7.5294 1.5762
99 6.7333 1.7689
100 8.0870 2.0198
101 8.3889 2.1638
102 7.6875 2.0223
103 8.2778 2.6834
104 7.6429 1.9859
105 0.0000 0.0000
106 0.0000 0.0000
107 0.0000 0.0000
108 0.0000 0.0000
109 0.0000 0.0000
110 0.0000 0.0000
111 0.0000 0.0000
112 0.0000 0.0000
113 0.0000 0.0000
114 0.0000 0.0000
115 0.0000 0.0000
116 0.0000 0.0000
117 0.0000 0.0000
118 0.0000 0.0000
119 0.0000 0.0000
120 0.0000 0.0000
121 7.7895 1.7645
122 8.2000 2.4276
123 8.5294 2.5465
124 8.1176 1.8433
125 7.1875 1.9111
126 7.7000 3.3779
127 6.8333 1.2802
128 7.6111 1.2970
129 0.0000 0.0000
130 0.0000 0.0000
131 0.0000 0.0000
132 0.0000 0.0000
133 0.0000 0.0000
134 0.0000 0.0000
135 0.0000 0.0000
136 0.0000 0.0000
137 0.0000 0.0000
138 0.0000 0.0000
139 0.0000 0.0000
140 0.0000 0.0000
141 0.0000 0.0000
142 0.0000 0.0000
143 0.0000 0.0000
144 0.0000 0.0000
145 7.1429 1.8844
146 6.4167 1.3819
147 6.9091 2.0206
148 7.0909 1.7297
149 6.8889 2.9229
150 8.8571 2.4744
151 7.7778 2.2987
152 7.8889 1.6292
153 0.0000 0.0000
154 0.0000 0.0000
155 0.0000 0.0000
156 0.0000 0.0000
157 0.0000 0.0000
158 0.0000 0.0000
159 0.0000 0.0000
160 0.0000 0.0000
161 0.0000 0.0000
162 0.0000 0.0000
163 0.0000 0.0000
164 0.0000 0.0000
165 0.0000 0.0000
166 0.0000 0.0000
167 0.0000 0.0000
168 0.0000 0.0000
169 7.4615 1.9852
170 7.5000 1.5366
171 8.4167 2.6913
172 7.8000 2.3438
173 9.1200 1.9864
174 7.5000 1.9180
175 7.3529 1.9686
176 7.0000 1.9403
177 0.0000 0.0000
178 0.0000 0.0000
179 0.0000 0.0000
180 0.0000 0.0000
181 0.0000 0.0000
182 0.0000 0.0000
183 0.0000 0.0000
184 0.0000 0.0000
185 0.0000 0.0000
186 0.0000 0.0000
187 0.0000 0.0000
188 0.0000 0.0000
189 0.0000 0.0000
190 0.0000 0.0000
191 0.0000 0.0000
192 0.0000 0.0000
193 8.8710 2.1663
194 7.5714 2.1946
195 6.4615 1.7809
196 7.9600 1.4827
197 7.0588 1.3491
198 8.0000 2.1521
199 7.8824 1.8112
200 9.2778 2.4222
201 0.0000 0.0000
202 0.0000 0.0000
203 0.0000 0.0000
204 0.0000 0.0000
205 0.0000 0.0000
206 0.0000 0.0000
207 0.0000 0.0000
208 0.0000 0.0000
209 0.0000 0.0000
210 0.0000 0.0000
211 0.0000 0.0000
212 0.0000 0.0000
213 0.0000 0.0000
214 0.0000 0.0000
215 0.0000 0.0000
216 0.0000 0.0000
217 7.6471 2.8685
218 8.6667 2.5927
219 7.9444 1.7471
220 9.3000 3.1639
221 7.3500 1.2757
222 8.6250 2.2604
223 8.0000 1.3587
224 8.5455 2.3880
225 0.0000 0.0000
226 0.0000 0.0000
227 0.0000 0.0000
228 0.0000 0.0000
229 0.0000 0.0000
230 0.0000 0.0000
231 0.0000 0.0000
232 0.0000 0.0000
233 0.0000 0.0000
234 0.0000 0.0000
235 0.0000 0.0000
236 0.0000 0.0000
237 0.0000 0.0000
238 0.0000 0.0000
239 0.0000 0.0000
240 0.0000 0.0000
241 8.0870 2.2441
242 6.5000 1.6073
243 8.1176 2.8878
244 9.1667 2.6719
245 7.5263 1.3905
246 7.5789 2.1105
247 8.0417 1.1719
248 7.0000 1.9540
249 0.0000 0.0000
250 0.0000 0.0000
251 0.0000 0.0000
252 0.0000 0.0000
253 0.0000 0.0000
254 0.0000 0.0000
255 0.0000 0.0000
256 0.0000 0.0000
257 0.0000 0.0000
258 0.0000 0.0000
259 0.0000 0.0000
260 0.0000 0.0000
261 0.0000 0.0000
262 0.0000 0.0000
263 0.0000 0.0000
264 0.0000 0.0000
265 8.1250 1.8998
266 7.1818 2.1666
267 8.5294 2.3793
268 7.1429 1.3553
269 7.8000 1.6411
270 8.5500 1.8021
271 8.0455 1.7704
272 7.5714 1.8790
273 0.0000 0.0000
274 0.0000 0.0000
275 0.0000 0.0000
276 0.0000 0.0000
277 0.0000 0.0000
278 0.0000 0.0000
279 0.0000 0.0000
280 0.0000 0.0000
281 0.0000 0.0000
282 0.0000 0.0000
283 0.0000 0.0000
284 0.0000 0.0000
285 0.0000 0.0000
286 0.0000 0.0000
287 0.0000 0.0000
288 0.0000 0.0000
289 8.4500 2.1089
290 7.8824 1.8750
291 7.4118 2.0309
292 7.4286 2.2588
293 6.8750 1.4524
294 6.8750 1.3636
295 7.2222 1.4741
296 8.0000 1.8028
297 0.0000 0.0000
298 0.0000 0.0000
299 0.0000 0.0000
300 0.0000 0.0000
301 0.0000 0.0000
302 0.0000 0.0000
303 0.0000 0.0000
304 0.0000 0.0000
305 0.0000 0.0000
306 0.0000 0.0000
307 0.0000 0.0000
308 0.0000 0.0000
309 0.0000 0.0000
310 0.0000 0.0000
311 0.0000 0.0000
312 0.0000 0.0000
313 7.9091 2.3337
314 7.2857 1.5779
315 9.1724 2.3204
316 6.6667 1.3123
317 7.6842 1.2999
318 6.9231 1.1410
319 7.5333 1.8927
320 8.2174 1.6929
321 0.0000 0.0000
322 0.0000 0.0000
323 0.0000 0.0000
324 0.0000 0.0000
325 0.0000 0.0000
326 0.0000 0.0000
327 0.0000 0.0000
328 0.0000 0.0000
329 0.0000 0.0000
330 0.0000 0.0000
331 0.0000 0.0000
332 0.0000 0.0000
333 0.0000 0.0000
334 0.0000 0.0000
335 0.0000 0.0000
336 0.0000 0.0000
337 7.8000 2.6633
338 6.8571 1.7670
339 7.0667 2.1746
340 8.5758 1.9545
341 6.6667 2.1602
342 7.7143 1.9060
343 7.2000 1.6000
344 7.6875 1.8947
345 0.0000 0.0000
346 0.0000 0.0000
347 0.0000 0.0000
348 0.0000 0.0000
349 0.0000 0.0000
350 0.0000 0.0000
351 0.0000 0.0000
352 0.0000 0.0000
353 0.0000 0.0000
354 0.0000 0.0000
355 0.0000 0.0000
356 0.0000 0.0000
357 0.0000 0.0000
358 0.0000 0.0000
359 0.0000 0.0000
360 0.0000 0.0000
361 7.3846 2.3051
362 7.2222 1.1811
363 7.2500 1.7854
364 7.2105 1.1507
365 6.6000 2.0265
366 7.8750 2.4969
367 6.7143 1.3851
368 9.0357 1.8609
369 0.0000 0.0000
370 0.0000 0.0000
371 0.0000 0.0000
372 0.0000 0.0000
373 0.0000 0.0000
374 0.0000 0.0000
375 0.0000 0.0000
376 0.0000 0.0000
377 0.0000 0.0000
378 0.0000 0.0000
379 0.0000 0.0000
380 0.0000 0.0000
381 0.0000 0.0000
382 0.0000 0.0000
383 0.0000 0.0000
384 0.0000 0.0000
385 8.7727 2.2347
386 8.7368 2.6723
387 8.1538 3.0596
388 7.1818 1.5851
389 7.5882 1.7170
390 7.3684 1.5964
391 7.0000 1.0377
392 8.4444 2.1402
393 0.0000 0.0000
394 0.0000 0.0000
395 0.0000 0.0000
396 0.0000 0.0000
397 0.0000 0.0000
398 0.0000 0.0000
399 0.0000 0.0000
400 0.0000 0.0000
401 0.0000 0.0000
402 0.0000 0.0000
403 0.0000 0.0000
404 0.0000 0.0000
405 0.0000 0.0000
406 0.0000 0.0000
407 0.0000 0.0000
408 0.0000 0.0000
409 7.7500 2.4195
410 7.6000 2.3036
411 7.8889 1.5595
412 6.0909 1.8318
413 7.1333 1.5861
414 7.4667 2.3055
415 7.9474 1.7614
416 7.6667 2.5276
417 0.0000 0.0000
418 0.0000 0.0000
419 0.0000 0.0000
420 0.0000 0.0000
421 0.0000 0.0000
422 0.0000 0.0000
423 0.0000 0.0000
424 0.0000 0.0000
425 0.0000 0.0000
426 0.0000 0.0000
427 0.0000 0.0000
428 0.0000 0.0000
429 0.0000 0.0000
430 0.0000 0.0000
431 0.0000 0.0000
432 0.0000 0.0000
433 7.4615 2.1345
434 9.0870 2.2441
435 7.5385 2.1345
436 8.1429 2.5314
437 7.5714 2.1946
438 7.0000 1.6641
439 9.0435 2.6289
440 7.3750 2.3947
441 0.0000 0.0000
442 0.0000 0.0000
443 0.0000 0.0000
444 0.0000 0.0000
445 0.0000 0.0000
446 0.0000 0.0000
447 0.0000 0.0000
448 0.0000 0.0000
449 0.0000 0.0000
450 0.0000 0.0000
451 0.0000 0.0000
452 0.0000 0.0000
453 0.0000 0.0000
454 0.0000 0.0000
455 0.0000 0.0000
456 0.0000 0.0000
457 7.7143 1.6372
458 7.2143 1.6115
459 8.6842 2.1039
460 7.0000 1.8127
461 8.8182 2.4979
462 7.7000 1.3820
463 7.5294 1.8508
464 7.5333 1.4996
465 0.0000 0.0000
466 0.0000 0.0000
467 0.0000 0.0000
468 0.0000 0.0000
469 0.0000 0.0000
470 0.0000 0.0000
471 0.0000 0.0000
472 0.0000 0.0000
473 0.0000 0.0000
474 0.0000 0.0000
475 0.0000 0.0000
476 0.0000 0.0000
477 0.0000 0.0000
478 0.0000 0.0000
479 0.0000 0.0000
480 0.0000 0.0000
481 7.8500 2.0069
482 7.6667 1.7951
483 7.0000 1.7097
484 8.4667 1.8571
485 7.7000 1.8466
486 8.2500 2.0463
487 6.8462 1.8333
488 7.8889 1.7916
489 0.0000 0.0000
490 0.0000 0.0000
491 0.0000 0.0000
492 0.0000 0.0000
493 0.0000 0.0000
494 0.0000 0.0000
495 0.0000 0.0000
496 0.0000 0.0000
497 0.0000 0.0000
498 0.0000 0.0000
499 0.0000 0.0000
500 0.0000 0.0000
501 0.0000 0.0000
502 0.0000 0.0000
503 0.0000 0.0000
504 0.0000 0.0000
505 7.8750 1.7633
506 8.0000 1.8127
507 7.8235 1.8226
508 7.0000 0.8452
509 7.0625 1.9516
510 9.3158 2.6168
511 8.2105 2.2845
512 7.6429 1.7971
513 0.0000 0.0000
514 0.0000 0.0000
515 0.0000 0.0000
516 0.0000 0.0000
517 0.0000 0.0000
518 0.0000 0.0000
519 0.0000 0.0000
520 0.0000 0.0000
521 0.0000 0.0000
522 0.0000 0.0000
523 0.0000 0.0000
524 0.0000 0.0000
525 0.0000 0.0000
526 0.0000 0.0000
527 0.0000 0.0000
528 0.0000 0.0000
529 7.7857 1.9704
530 8.0556 2.2478
531 8.1818 1.5851
532 9.5455 2.2842
533 8.1875 2.1569
534 6.8182 2.1666
535 7.4118 1.6109
536 7.8824 1.9367
537 0.0000 0.0000
538 0.0000 0.0000
539 0.0000 0.0000
540 0.0000 0.0000
541 0.0000 0.0000
542 0.0000 0.0000
543 0.0000 0.0000
544 0.0000 0.0000
545 0.0000 0.0000
546 0.0000 0.0000
547 0.0000 0.0000
548 0.0000 0.0000
549 0.0000 0.0000
550 0.0000 0.0000
551 0.0000 0.0000
552 0.0000 0.0000
553 8.4348 1.9962
554 8.7059 2.1078
555 8.5909 2.2291
556 8.3529 2.0275
557 6.4444 2.1140
558 7.9167 1.5789
559 8.3333 3.2489
560 6.4615 1.2163
561 0.0000 0.0000
562 0.0000 0.0000
563 0.0000 0.0000
564 0.0000 0.0000
565 0.0000 0.0000
566 0.0000 0.0000
567 0.0000 0.0000
568 0.0000 0.0000
569 0.0000 0.0000
570 0.0000 0.0000
571 0.0000 0.0000
572 0.0000 0.0000
573 0.0000 0.0000
574 0.0000 0.0000
575 0.0000 0.0000
576 0.0000 0.0000
577 6.9375 1.6759
578 8.9000 2.7368
579 8.5882 2.1436
580 6.9412 1.3491
581 6.4444 1.9500
582 8.5517 1.7924
583 7.0909 2.2745
584 6.5455 2.0611
585 0.0000 0.0000
586 0.0000 0.0000
587 0.0000 0.0000
588 0.0000 0.0000
589 0.0000 0.0000
590 0.0000 0.0000
591 0.0000 0.0000
592 0.0000 0.0000
593 0.0000 0.0000
594 0.0000 0.0000
595 0.0000 0.0000
596 0.0000 0.0000
597 0.0000 0.0000
598 0.0000 0.0000
599 0.0000 0.0000
600 0.0000 0.0000
601 7.4000 2.3749
602 7.9474 2.3277
603 8.0357 1.8221
604 7.5882 2.0017
605 8.7917 3.0548
606 6.5385 1.0088
607 7.7778 2.1488
608 6.2727 0.9621
609 0.0000 0.0000
610 0.0000 0.0000
611 0.0000 0.0000
612 0.0000 0.0000
613 0.0000 0.0000
614 0.0000 0.0000
615 0.0000 0.0000
616 0.0000 0.0000
617 0.0000 0.0000
618 0.0000 0.0000
619 0.0000 0.0000
620 0.0000 0.0000
621 0.0000 0.0000
622 0.0000 0.0000
623 0.0000 0.0000
624 0.0000 0.0000
625 7.1250 1.4087
626 6.7692 1.5765
627 8.4762 1.9909
628 8.1905 2.1071
629 7.9545 2.3057
630 8.7727 2.1306
631 7.2857 1.6660
632 7.4737 1.1863
633 0.0000 0.0000
634 0.0000 0.0000
635 0.0000 0.0000
636 0.0000 0.0000
637 0.0000 0.0000
638 0.0000 0.0000
639 0.0000 0.0000
640 0.0000 0.0000
641 0.0000 0.0000
642 0.0000 0.0000
643 0.0000 0.0000
644 0.0000 0.0000
645 0.0000 0.0000
646 0.0000 0.0000
647 0.0000 0.0000
648 0.0000 0.0000
649 7.5263 2.1853
650 8.5217 1.9081
651 7.0000 1.6475
652 8.2941 2.4438
653 7.1538 2.2135
654 8.4000 1.9339
655 7.4615 2.1345
656 7.7143 1.7496
657 0.0000 0.0000
658 0.0000 0.0000
659 0.0000 0.0000
660 0.0000 0.0000
661 0.0000 0.0000
662 0.0000 0.0000
663 0.0000 0.0000
664 0.0000 0.0000
665 0.0000 0.0000
666 0.0000 0.0000
667 0.0000 0.0000
668 0.0000 0.0000
669 0.0000 0.0000
670 0.0000 0.0000
671 0.0000 0.0000
672 0.0000 0.0000
673 7.2778 1.5565
674 6.8462 2.0323
675 8.1500 2.4955
676 7.4118 2.1160
677 7.1176 1.0222
678 7.6471 1.6429
679 6.8333 1.6245
680 8.8182 2.7075
681 0.0000 0.0000
682 0.0000 0.0000
683 0.0000 0.0000
684 0.0000 0.0000
685 0.0000 0.0000
686 0.0000 0.0000
687 0.0000 0.0000
688 0.0000 0.0000
689 0.0000 0.0000
690 0.0000 0.0000
691 0.0000 0.0000
692 0.0000 0.0000
693 0.0000 0.0000
694 0.0000 0.0000
695 0.0000 0.0000
696 0.0000 0.0000
697 7.8182 1.8741
698 7.0769 1.7742
699 7.9412 1.6259
700 7.5882 2.0017
701 8.0556 2.0942
702 8.4615 1.1174
703 8.0625 1.9193
704 7.6471 1.6783
705 0.0000 0.0000
706 0.0000 0.0000
707 0.0000 0.0000
708 0.0000 0.0000
709 0.0000 0.0000
710 0.0000 0.0000
711 0.0000 0.0000
712 0.0000 0.0000
713 0.0000 0.0000
714 0.0000 0.0000
715 0.0000 0.0000
716 0.0000 0.0000
717 0.0000 0.0000
718 0.0000 0.0000
719 0.0000 0.0000
720 0.0000 0.0000
721 7.7826 1.4731
722 7.4000 2.0591
723 8.8462 2.1784
724 8.5000 1.6467
725 7.9412 1.5135
726 7.6667 1.9889
727 7.2500 2.1262
728 7.7143 1.8808
729 0.0000 0.0000
730 0.0000 0.0000
731 0.0000 0.0000
732 0.0000 0.0000
733 0.0000 0.0000
734 0.0000 0.0000
735 0.0000 0.0000
736 0.0000 0.0000
737 0.0000 0.0000
738 0.0000 0.0000
739 0.0000 0.0000
740 0.0000 0.0000
741 0.0000 0.0000
742 0.0000 0.0000
743 0.0000 0.0000
744 0.0000 0.0000
745 8.3889 1.6034
746 7.1875 1.5499
747 7.5000 2.8373
748 7.6000 1.5406
749 8.1333 2.0613
750 7.5294 1.4600
751 8.3500 1.9818
752 7.1667 2.4095
753 0.0000 0.0000
754 0.0000 0.0000
755 0.0000 0.0000
756 0.0000 0.0000
757 0.0000 0.0000
758 0.0000 0.0000
759 0.0000 0.0000
760 0.0000 0.0000
761 0.0000 0.0000
762 0.0000 0.0000
763 0.0000 0.0000
764 0.0000 0.0000
765 0.0000 0.0000
766 0.0000 0.0000
767 0.0000 0.0000
768 0.0000 0.0000
769 8.5789 2.6816
770 6.6000 2.0591
771 8.0667 2.1437
772 9.4828 1.7931
773 9.4545 2.2508
774 8.9583 1.6452
775 7.8000 1.8330
776 7.6667 2.0870
777 0.0000 0.0000
778 0.0000 0.0000
779 0.0000 0.0000
780 0.0000 0.0000
781 0.0000 0.0000
782 0.0000 0.0000
783 0.0000 0.0000
784 0.0000 0.0000
785 0.0000 0.0000
786 0.0000 0.0000
787 0.0000 0.0000
788 0.0000 0.0000
789 0.0000 0.0000
790 0.0000 0.0000
791 0.0000 0.0000
792 0.0000 0.0000
793 6.8333 1.8634
794 8.0625 2.2768
795 6.9231 2.1290
796 8.0588 2.3382
797 7.2143 1.9704
798 8.5789 2.9614
799 7.2308 1.6712
800 7.9130 1.7672
801 0.0000 0.0000
802 0.0000 0.0000
803 0.0000 0.0000
804 0.0000 0.0000
805 0.0000 0.0000
806 0.0000 0.0000
807 0.0000 0.0000
808 0.0000 0.0000
809 0.0000 0.0000
810 0.0000 0.0000
811 0.0000 0.0000
812 0.0000 0.0000
813 0.0000 0.0000
814 0.0000 0.0000
815 0.0000 0.0000
816 0.0000 0.0000
817 6.8333 0.5528
818 7.4286 1.7202
819 9.1724 2.7426
820 6.8000 1.2220
821 7.0000 1.8811
822 8.0000 1.7823
823 8.4000 1.4283
824 6.4000 1.3064
825 0.0000 0.0000
826 0.0000 0.0000
827 0.0000 0.0000
828 0.0000 0.0000
829 0.0000 0.0000
830 0.0000 0.0000
831 0.0000 0.0000
832 0.0000 0.0000
833 0.0000 0.0000
834 0.0000 0.0000
835 0.0000 0.0000
836 0.0000 0.0000
837 0.0000 0.0000
838 0.0000 0.0000
839 0.0000 0.0000
840 0.0000 0.0000
841 7.7143 2.2177
842 7.8462 2.1066
843 7.7143 2.2177
844 7.3529 1.4928
845 6.6667 1.6997
846 8.3462 1.7747
847 7.8571 2.1665
848 6.3000 1.4177
849 0.0000 0.0000
850 0.0000 0.0000
851 0.0000 0.0000
852 0.0000 0.0000
853 0.0000 0.0000
854 0.0000 0.0000
855 0.0000 0.0000
856 0.0000 0.0000
857 0.0000 0.0000
858 0.0000 0.0000
859 0.0000 0.0000
860 0.0000 0.0000
861 0.0000 0.0000
862 0.0000 0.0000
863 0.0000 0.0000
864 0.0000 0.0000
865 8.5769 1.3060
866 7.8571 2.2315
867 6.3750 1.4087
868 8.4286 2.1728
869 6.6154 1.6888
870 7.9286 1.8309
871 6.2000 1.6000
872 7.8947 1.7440
873 0.0000 0.0000
874 0.0000 0.0000
875 0.0000 0.0000
876 0.0000 0.0000
877 0.0000 0.0000
878 0.0000 0.0000
879 0.0000 0.0000
880 0.0000 0.0000
881 0.0000 0.0000
882 0.0000 0.0000
883 0.0000 0.0000
884 0.0000 0.0000
885 0.0000 0.0000
886 0.0000 0.0000
887 0.0000 0.0000
888 0.0000 0.0000
889 6.7143 1.3851
890 9.0000 2.2711
891 7.1875 1.1842
892 7.2941 1.3180
893 7.5385 2.5605
894 8.8421 2.4551
895 8.3333 2.0548
896 7.8750 1.3170
897 0.0000 0.0000
898 0.0000 0.0000
899 0.0000 0.0000
900 0.0000 0.0000
901 0.0000 0.0000
902 0.0000 0.0000
903 0.0000 0.0000
904 0.0000 0.0000
905 0.0000 0.0000
906 0.0000 0.0000
907 0.0000 0.0000
908 0.0000 0.0000
909 0.0000 0.0000
910 0.0000 0.0000
911 0.0000 0.0000
912 0.0000 0.0000
913 7.6250 1.4087
914 7.7500 2.8831
915 6.4615 1.3368
916 9.4167 1.8690
917 8.3333 1.7480
918 7.3529 1.0256
919 7.3846 1.9430
920 8.1600 1.5920
921 0.0000 0.0000
922 0.0000 0.0000
923 0.0000 0.0000
924 0.0000 0.0000
925 0.0000 0.0000
926 0.0000 0.0000
927 0.0000 0.0000
928 0.0000 0.0000
929 0.0000 0.0000
930 0.0000 0.0000
931 0.0000 0.0000
932 0.0000 0.0000
933 0.0000 0.0000
934 0.0000 0.0000
935 0.0000 0.0000
936 0.0000 0.0000
937 7.0769 1.2065
938 7.4211 1.1386
939 7.6400 1.3822
940 8.0000 1.7321
941 8.0000 2.3741
942 6.5556 2.1660
943 5.7500 1.0897
944 7.8889 1.4866
945 0.0000 0.0000
946 0.0000 0.0000
947 0.0000 0.0000
948 0.0000 0.0000
949 0.0000 0.0000
950 0.0000 0.0000
951 0.0000 0.0000
952 0.0000 0.0000
953 0.0000 0.0000
954 0.0000 0.0000
955 0.0000 0.0000
956 0.0000 0.0000
957 0.0000 0.0000
958 0.0000 0.0000
959 0.0000 0.0000
960 0.0000 0.0000
961 7.4286 2.5274
962 8.4800 1.4455
963 7.0000 1.7581
964 7.2941 1.3180
965 8.7333 3.3954
966 7.4211 1.6324
967 6.7647 1.7330
968 7.2222 2.0154
969 0.0000 0.0000
970 0.0000 0.0000
971 0.0000 0.0000
972 0.0000 0.0000
973 0.0000 0.0000
974 0.0000 0.0000
975 0.0000 0.0000
976 0.0000 0.0000
977 0.0000 0.0000
978 0.0000 0.0000
979 0.0000 0.0000
980 0.0000 0.0000
981 0.0000 0.0000
982 0.0000 0.0000
983 0.0000 0.0000
984 0.0000 0.0000
985 6.8000 1.7205
986 6.4444 1.9500
987 9.1154 2.3093
988 8.6400 2.6515
989 7.3636 2.3845
990 7.0769 1.4916
991 8.0526 1.9594
992 8.2500 2.1880
993 0.0000 0.0000
994 0.0000 0.0000
995 0.0000 0.0000
996 0.0000 0.0000
997 0.0000 0.0000
998 0.0000 0.0000
999 0.0000 0.0000
1000 0.0000 0.0000
1001 0.0000 0.0000
1002 0.0000 0.0000
1003 0.0000 0.0000
1004 0.0000 0.0000
1005 0.0000 0.0000
1006 0.0000 0.0000
1007 0.0000 0.0000
1008 0.0000 0.0000
1009 8.9130 2.2825
1010 6.8333 1.6750
1011 7.1429 1.0817
1012 7.0909 2.3531
1013 8.2667 2.1746
1014 7.1538 1.4058
1015 7.9333 2.3795
1016 7.5333 1.7839
1017 0.0000 0.0000
1018 0.0000 0.0000
1019 0.0000 0.0000
1020 0.0000 0.0000
1021 0.0000 0.0000
1022 0.0000 0.0000
1023 0.0000 0.0000
1024 0.0000 0.0000
1025 0.0000 0.0000
1026 0.0000 0.0000
1027 0.0000 0.0000
1028 0.0000 0.0000
1029 0.0000 0.0000
1030 0.0000 0.0000
1031 0.0000 0.0000
1032 0.0000 0.0000
1033 7.5000 2.3528
1034 7.2500 1.4361
1035 8.4500 2.0365
1036 8.2667 2.5421
1037 7.8824 2.1388
1038 9.7000 2.5318
1039 7.2000 1.7205
1040 8.8378 1.7166
1041 0.0000 0.0000
1042 0.0000 0.0000
1043 0.0000 0.0000
1044 0.0000 0.0000
1045 0.0000 0.0000
1046 0.0000 0.0000
1047 0.0000 0.0000
1048 0.0000 0.0000
1049 0.0000 0.0000
1050 0.0000 0.0000
1051 0.0000 0.0000
1052 0.0000 0.0000
1053 0.0000 0.0000
1054 0.0000 0.0000
1055 0.0000 0.0000
1056 0.0000 0.0000
1057 8.3636 2.1223
1058 7.2667 2.0155
1059 8.2778 1.6602
1060 8.2500 1.8764
1061 8.2222 1.7812
1062 7.7857 2.2734
1063 6.9375 1.6759
1064 7.8947 1.8608
1065 0.0000 0.0000
1066 0.0000 0.0000
1067 0.0000 0.0000
1068 0.0000 0.0000
1069 0.0000 0.0000
1070 0.0000 0.0000
1071 0.0000 0.0000
1072 0.0000 0.0000
1073 0.0000 0.0000
1074 0.0000 0.0000
1075 0.0000 0.0000
1076 0.0000 0.0000
1077 0.0000 0.0000
1078 0.0000 0.0000
1079 0.0000 0.0000
1080 0.0000 0.0000
1081 8.8889 2.5142
1082 7.0833 2.2158
1083 7.2500 1.0897
1084 7.2000 1.3266
1085 7.6154 1.9430
1086 7.9444 1.8401
1087 8.8500 2.2198
1088 7.8333 1.7717
1089 0.0000 0.0000
1090 0.0000 0.0000
1091 0.0000 0.0000
1092 0.0000 0.0000
1093 0.0000 0.0000
1094 0.0000 0.0000
1095 0.0000 0.0000
1096 0.0000 0.0000
1097 0.0000 0.0000
1098 0.0000 0.0000
1099 0.0000 0.0000
1100 0.0000 0.0000
1101 0.0000 0.0000
1102 0.0000 0.0000
1103 0.0000 0.0000
1104 0.0000 0.0000
1105 7.6364 1.3330
1106 7.0000 1.9437
1107 6.6364 1.4316
1108 9.3182 2.1189
1109 8.8000 2.8740
1110 7.7273 2.2600
1111 6.5714 1.2372
1112 6.7500 2.0463
1113 0.0000 0.0000
1114 0.0000 0.0000
1115 0.0000 0.0000
1116 0.0000 0.0000
1117 0.0000 0.0000
1118 0.0000 0.0000
1119 0.0000 0.0000
1120 0.0000 0.0000
1121 0.0000 0.0000
1122 0.0000 0.0000
1123 0.0000 0.0000
1124 0.0000 0.0000
1125 0.0000 0.0000
1126 0.0000 0.0000
1127 0.0000 0.0000
1128 0.0000 0.0000
1129 9.2500 2.2220
1130 8.2632 1.6171
1131 6.8000 1.8330
1132 8.9667 1.9232
1133 8.4000 1.3266
1134 6.5556 2.5434
1135 6.2000 0.7483
1136 8.4231 1.7136
1137 0.0000 0.0000
1138 0.0000 0.0000
1139 0.0000 0.0000
1140 0.0000 0.0000
1141 0.0000 0.0000
1142 0.0000 0.0000
1143 0.0000 0.0000
1144 0.0000 0.0000
1145 0.0000 0.0000
1146 0.0000 0.0000
1147 0.0000 0.0000
1148 0.0000 0.0000
1149 0.0000 0.0000
1150 0.0000 0.0000
1151 0.0000 0.0000
1152 0.0000 0.0000
1153 8.8235 2.3822
1154 7.1875 1.1842
1155 6.8333 2.2669
1156 7.0909 2.0206
1157 7.1111 1.9405
1158 6.7500 1.2500
1159 7.6250 1.6910
1160 7.6190 1.8120
1161 0.0000 0.0000
1162 0.0000 0.0000
1163 0.0000 0.0000
1164 0.0000 0.0000
1165 0.0000 0.0000
1166 0.0000 0.0000
1167 0.0000 0.0000
1168 0.0000 0.0000
1169 0.0000 0.0000
1170 0.0000 0.0000
1171 0.0000 0.0000
1172 0.0000 0.0000
1173 0.0000 0.0000
1174 0.0000 0.0000
1175 0.0000 0.0000
1176 0.0000 0.0000
1177 7.3529 1.4118
1178 7.6818 1.6345
1179 7.4583 1.4994
1180 7.2353 1.1646
1181 8.2308 1.5519
1182 8.7037 1.7809
1183 8.0000 2.2361
1184 7.8235 2.0647
1185 0.0000 0.0000
1186 0.0000 0.0000
1187 0.0000 0.0000
1188 0.0000 0.0000
1189 0.0000 0.0000
1190 0.0000 0.0000
1191 0.0000 0.0000
1192 0.0000 0.0000
1193 0.0000 0.0000
1194 0.0000 0.0000
1195 0.0000 0.0000
1196 0.0000 0.0000
1197 0.0000 0.0000
1198 0.0000 0.0000
1199 0.0000 0.0000
1200 0.0000 0.0000
1201 7.8000 1.8690
1202 7.4118 1.7509
1203 6.7000 2.2825
1204 7.4762 1.3316
1205 8.0556 2.2478
1206 8.5000 2.6118
1207 7.5263 1.9833
1208 6.9091 1.8807
1209 0.0000 0.0000
1210 0.0000 0.0000
1211 0.0000 0.0000
1212 0.0000 0.0000
1213 0.0000 0.0000
1214 0.0000 0.0000
1215 0.0000 0.0000
1216 0.0000 0.0000
1217 0.0000 0.0000
1218 0.0000 0.0000
1219 0.0000 0.0000
1220 0.0000 0.0000
1221 0.0000 0.0000
1222 0.0000 0.0000
1223 0.0000 0.0000
1224 0.0000 0.0000
1225 6.7273 1.4827
1226 7.2353 1.6988
1227 7.9412 1.6617
1228 7.0833 1.9773
1229 8.8000 3.0155
1230 8.0909 1.6211
1231 7.1250 2.0272
1232 7.5000 1.6073
1233 0.0000 0.0000
1234 0.0000 0.0000
1235 0.0000 0.0000
1236 0.0000 0.0000
1237 0.0000 0.0000
1238 0.0000 0.0000
1239 0.0000 0.0000
1240 0.0000 0.0000
1241 0.0000 0.0000
1242 0.0000 0.0000
1243 0.0000 0.0000
1244 0.0000 0.0000
1245 0.0000 0.0000
1246 0.0000 0.0000
1247 0.0000 0.0000
1248 0.0000 0.0000
1249 8.5263 2.3479
1250 7.2500 1.5207
1251 6.6154 1.3323
1252 8.6522 2.5810
1253 8.2143 2.5405
1254 8.2000 1.8601
1255 7.0714 2.0165
1256 8.3684 2.8137
1257 0.0000 0.0000
1258 0.0000 0.0000
1259 0.0000 0.0000
1260 0.0000 0.0000
1261 0.0000 0.0000
1262 0.0000 0.0000
1263 0.0000 0.0000
1264 0.0000 0.0000
1265 0.0000 0.0000
1266 0.0000 0.0000
1267 0.0000 0.0000
1268 0.0000 0.0000
1269 0.0000 0.0000
1270 0.0000 0.0000
1271 0.0000 0.0000
1272 0.0000 0.0000
1273 7.6154 1.8203
1274 7.0667 1.7308
1275 8.1538 2.4759
1276 6.4000 1.4967
1277 7.5263 1.8459
1278 7.5625 2.2352
1279 8.0455 1.9418
1280 7.1111 1.5595
1281 0.0000 0.0000
1282 0.0000 0.0000
1283 0.0000 0.0000
1284 0.0000 0.0000
1285 0.0000 0.0000
1286 0.0000 0.0000
1287 0.0000 0.0000
1288 0.0000 0.0000
1289 0.0000 0.0000
1290 0.0000 0.0000
1291 0.0000 0.0000
1292 0.0000 0.0000
1293 0.0000 0.0000
1294 0.0000 0.0000
1295 0.0000 0.0000
1296 0.0000 0.0000
1297 8.1176 2.5869
1298 7.5000 1.9365
1299 7.9444 1.5082
1300 7.3333 2.0817
1301 7.7778 2.0698
1302 7.2778 1.5204
1303 7.0000 1.9215
1304 8.8182 1.9917
1305 0.0000 0.0000
1306 0.0000 0.0000
1307 0.0000 0.0000
1308 0.0000 0.0000
1309 0.0000 0.0000
1310 0.0000 0.0000
1311 0.0000 0.0000
1312 0.0000 0.0000
1313 0.0000 0.0000
1314 0.0000 0.0000
1315 0.0000 0.0000
1316 0.0000 0.0000
1317 0.0000 0.0000
1318 0.0000 0.0000
1319 0.0000 0.0000
1320 0.0000 0.0000
1321 7.7500 1.6008
1322 7.1538 1.6570
1323 7.1333 2.2171
1324 7.5455 2.5357
1325 7.6111 2.0854
1326 8.2857 2.2070
1327 7.2500 1.7500
1328 9.1765 2.7490
1329 0.0000 0.0000
1330 0.0000 0.0000
1331 0.0000 0.0000
1332 0.0000 0.0000
1333 0.0000 0.0000
1334 0.0000 0.0000
1335 0.0000 0.0000
1336 0.0000 0.0000
1337 0.0000 0.0000
1338 0.0000 0.0000
1339 0.0000 0.0000
1340 0.0000 0.0000
1341 0.0000 0.0000
1342 0.0000 0.0000
1343 0.0000 0.0000
1344 0.0000 0.0000
1345 8.6500 1.8782
1346 7.4091 1.4032
1347 7.2222 1.5476
1348 7.9444 1.9853
1349 8.1875 2.3775
1350 7.5714 1.1780
1351 7.6000 1.2410
1352 9.3030 1.9304
1353 0.0000 0.0000
1354 0.0000 0.0000
1355 0.0000 0.0000
1356 0.0000 0.0000
1357 0.0000 0.0000
1358 0.0000 0.0000
1359 0.0000 0.0000
1360 0.0000 0.0000
1361 0.0000 0.0000
1362 0.0000 0.0000
1363 0.0000 0.0000
1364 0.0000 0.0000
1365 0.0000 0.0000
1366 0.0000 0.0000
1367 0.0000 0.0000
1368 0.0000 0.0000
1369 6.9231 1.7742
1370 8.0000 2.0276
1371 7.3846 1.7776
1372 7.2143 1.3190
1373 7.4615 1.9852
1374 7.8125 2.4295
1375 7.3750 1.4948
1376 7.2941 2.0797
1377 0.0000 0.0000
1378 0.0000 0.0000
1379 0.0000 0.0000
1380 0.0000 0.0000
1381 0.0000 0.0000
1382 0.0000 0.0000
1383 0.0000 0.0000
1384 0.0000 0.0000
1385 0.0000 0.0000
1386 0.0000 0.0000
1387 0.0000 0.0000
1388 0.0000 0.0000
1389 0.0000 0.0000
1390 0.0000 0.0000
1391 0.0000 0.0000
1392 0.0000 0.0000
1393 8.7273 2.0929
1394 6.8125 1.5898
1395 6.8462 1.0263
1396 8.2000 2.3438
1397 7.0833 1.7058
1398 8.2273 2.0874
1399 6.6111 1.3391
1400 8.3214 2.2369
1401 0.0000 0.0000
1402 0.0000 0.0000
1403 0.0000 0.0000
1404 0.0000 0.0000
1405 0.0000 0.0000
1406 0.0000 0.0000
1407 0.0000 0.0000
1408 0.0000 0.0000
1409 0.0000 0.0000
1410 0.0000 0.0000
1411 0.0000 0.0000
1412 0.0000 0.0000
1413 0.0000 0.0000
1414 0.0000 0.0000
1415 0.0000 0.0000
1416 0.0000 0.0000
1417 7.5625 1.9990
1418 7.7368 2.2674
1419 8.1250 2.1469
1420 8.5909 2.1880
1421 7.6471 1.2339
1422 7.3636 1.5535
1423 6.7333 1.3888
1424 7.3333 1.9889
1425 0.0000 0.0000
1426 0.0000 0.0000
1427 0.0000 0.0000
1428 0.0000 0.0000
1429 0.0000 0.0000
1430 0.0000 0.0000
1431 0.0000 0.0000
1432 0.0000 0.0000
1433 0.0000 0.0000
1434 0.0000 0.0000
1435 0.0000 0.0000
1436 0.0000 0.0000
1437 0.0000 0.0000
1438 0.0000 0.0000
1439 0.0000 0.0000
1440 0.0000 0.0000
1441 9.3636 2.5681
1442 7.1875 2.2141
1443 7.1000 2.3854
1444 8.0000 2.2913
1445 7.5385 1.7809
1446 8.0000 1.7489
1447 7.5789 1.6957
1448 6.8182 1.4025
1449 0.0000 0.0000
1450 0.0000 0.0000
1451 0.0000 0.0000
1452 0.0000 0.0000
1453 0.0000 0.0000
1454 0.0000 0.0000
1455 0.0000 0.0000
1456 0.0000 0.0000
1457 0.0000 0.0000
1458 0.0000 0.0000
1459 0.0000 0.0000
1460 0.0000 0.0000
1461 0.0000 0.0000
1462 0.0000 0.0000
1463 0.0000 0.0000
1464 0.0000 0.0000
1465 6.5833 1.4410
1466 8.5263 1.9020
1467 6.0000 1.9365
1468 6.4545 1.4374
1469 7.2727 1.9113
1470 7.0833 0.7592
1471 7.5333 1.6680
1472 6.6429 1.3942
1473 0.0000 0.0000
1474 0.0000 0.0000
1475 0.0000 0.0000
1476 0.0000 0.0000
1477 0.0000 0.0000
1478 0.0000 0.0000
1479 0.0000 0.0000
1480 0.0000 0.0000
1481 0.0000 0.0000
1482 0.0000 0.0000
1483 0.0000 0.0000
1484 0.0000 0.0000
1485 0.0000 0.0000
1486 0.0000 0.0000
1487 0.0000 0.0000
1488 0.0000 0.0000
1489 9.7143 3.2826
1490 8.3500 2.0561
1491 7.4000 2.0913
1492 7.9375 1.8190
1493 8.1053 1.7136
1494 8.3077 2.0897
1495 7.1333 1.8927
1496 7.3571 1.3420
1497 0.0000 0.0000
1498 0.0000 0.0000
1499 0.0000 0.0000
1500 0.0000 0.0000
1501 0.0000 0.0000
1502 0.0000 0.0000
1503 0.0000 0.0000
1504 0.0000 0.0000
1505 0.0000 0.0000
1506 0.0000 0.0000
1507 0.0000 0.0000
1508 0.0000 0.0000
1509 0.0000 0.0000
1510 0.0000 0.0000
1511 0.0000 0.0000
1512 0.0000 0.0000
1513 7.6190 1.8381
1514 7.0000 1.2403
1515 6.2353 1.3074
1516 7.2500 2.0463
1517 7.4000 1.2806
1518 7.1818 1.7999
1519 8.8000 2.2627
1520 6.5000 1.1180
1521 0.0000 0.0000
1522 0.0000 0.0000
1523 0.0000 0.0000
1524 0.0000 0.0000
1525 0.0000 0.0000
1526 0.0000 0.0000
1527 0.0000 0.0000
1528 0.0000 0.0000
1529 0.0000 0.0000
1530 0.0000 0.0000
1531 0.0000 0.0000
1532 0.0000 0.0000
1533 0.0000 0.0000
1534 0.0000 0.0000
1535 0.0000 0.0000
1536 0.0000 0.0000
1537 7.3684 1.7232
1538 7.8000 2.5871
1539 8.4000 2.0347
1540 7.4000 1.7720
1541 8.0000 2.5131
1542 7.0000 2.1213
1543 7.6250 2.0272
1544 8.2857 1.5779
1545 0.0000 0.0000
1546 0.0000 0.0000
1547 0.0000 0.0000
1548 0.0000 0.0000
1549 0.0000 0.0000
1550 0.0000 0.0000
1551 0.0000 0.0000
1552 0.0000 0.0000
1553 0.0000 0.0000
1554 0.0000 0.0000
1555 0.0000 0.0000
1556 0.0000 0.0000
1557 0.0000 0.0000
1558 0.0000 0.0000
1559 0.0000 0.0000
1560 0.0000 0.0000
1561 7.5385 2.3734
1562 8.5714 2.0136
1563 7.1818 1.8497
1564 7.6471 1.6783
1565 5.5000 1.1180
1566 8.6667 2.4944
1567 9.0000 2.5752
1568 6.5833 1.4410
1569 0.0000 0.0000
1570 0.0000 0.0000
1571 0.0000 0.0000
1572 0.0000 0.0000
1573 0.0000 0.0000
1574 0.0000 0.0000
1575 0.0000 0.0000
1576 0.0000 0.0000
1577 0.0000 0.0000
1578 0.0000 0.0000
1579 0.0000 0.0000
1580 0.0000 0.0000
1581 0.0000 0.0000
1582 0.0000 0.0000
1583 0.0000 0.0000
1584 0.0000 0.0000
1585 7.6667 2.2111
1586 6.6364 1.7201
1587 8.5263 2.0614
1588 7.7143 2.2177
1589 7.2500 1.5877
1590 8.3684 2.5795
1591 8.1111 3.7548
1592 8.3333 1.9720
1593 0.0000 0.0000
1594 0.0000 0.0000
1595 0.0000 0.0000
1596 0.0000 0.0000
1597 0.0000 0.0000
1598 0.0000 0.0000
1599 0.0000 0.0000
1600 0.0000 0.0000
1601 0.0000 0.0000
1602 0.0000 0.0000
1603 0.0000 0.0000
1604 0.0000 0.0000
1605 0.0000 0.0000
1606 0.0000 0.0000
1607 0.0000 0.0000
1608 0.0000 0.0000
1609 6.7500 2.1065
1610 7.2727 2.4896
1611 7.5000 2.0125
1612 7.5556 1.1653
1613 7.5714 1.8014
1614 7.5000 1.8303
1615 7.7647 2.0731
1616 7.7500 2.0156
1617 0.0000 0.0000
1618 0.0000 0.0000
1619 0.0000 0.0000
1620 0.0000 0.0000
1621 0.0000 0.0000
1622 0.0000 0.0000
1623 0.0000 0.0000
1624 0.0000 0.0000
1625 0.0000 0.0000
1626 0.0000 0.0000
1627 0.0000 0.0000
1628 0.0000 0.0000
1629 0.0000 0.0000