ITEM: TIMESTEP
0
ITEM: NUMBER OF ATOMS
5184
ITEM: BOX BOUNDS pp pp pp
0.000000 74.083470
0.000000 74.083470
0.000000 74.083470
ITEM: ATOMS id c_arpn c_srpn
1 8.6429 2.1583
2 6.9231 1.6853
3 8.6471 2.7427
4 8.6000 2.2891
5 9.1579 3.5283
6 6.9167 1.3819
7 8.4500 1.7457
8 7.5714 1.6782
9 0.0000 0.0000
10 0.0000 0.0000
11 0.0000 0.0000
12 0.0000 0.0000
13 0.0000 0.0000
14 0.0000 0.0000
15 0.0000 0.0000
16 0.0000 0.0000
17 0.0000 0.0000
18 0.0000 0.0000
19 0.0000 0.0000
20 0.0000 0.0000
21 0.0000 0.0000
22 0.0000 0.0000
23 0.0000 0.0000
24 0.0000 0.0000
25 6.6667 1.0274
26 7.1765 1.5429
27 7.6667 1.2910
28 6.9231 1.6390
29 7.4375 2.9574
30 8.3158 2.2255
31 8.3571 1.9496
32 8.0909 2.9374
33 0.0000 0.0000
34 0.0000 0.0000
35 0.0000 0.0000
36 0.0000 0.0000
37 0.0000 0.0000
38 0.0000 0.0000
39 0.0000 0.0000
40 0.0000 0.0000
41 0.0000 0.0000
42 0.0000 0.0000
43 0.0000 0.0000
44 0.0000 0.0000
45 0.0000 0.0000
46 0.0000 0.0000
47 0.0000 0.0000
48 0.0000 0.0000
49 6.5455 1.7249
50 7.8333 2.4095
51 8.1333 2.6043
52 7.7778 1.4359
53 7.2941 1.4457
54 7.1333 1.8209
55 8.0870 1.7173
56 7.1000 2.5865
57 0.0000 0.0000
58 0.0000 0.0000
59 0.0000 0.0000
60 0.0000 0.0000
61 0.0000 0.0000
62 0.0000 0.0000
63 0.0000 0.0000
64 0.0000 0.0000
65 0.0000 0.0000
66 0.0000 0.0000
67 0.0000 0.0000
68 0.0000 0.0000
69 0.0000 0.0000
70 0.0000 0.0000
71 0.0000 0.0000
72 0.0000 0.0000
73 7.5333 1.9619
74 7.8261 1.6058
75 6.5385 1.2163
76 6.8571 1.6413
77 9.7097 2.3718
78 7.8667 2.6800
79 7.0667 1.4817
80 8.1250 2.1663
81 0.0000 0.0000
82 0.0000 0.0000
83 0.0000 0.0000
84 0.0000 0.0000
85 0.0000 0.0000
86 0.0000 0.0000
87 0.0000 0.0000
88 0.0000 0.0000
89 0.0000 0.0000
90 0.0000 0.0000
91 0.0000 0.0000
92 0.0000 0.0000
93 0.0000 0.0000
94 0.0000 0.0000
95 0.0000 0.0000
96 0.0000 0.0000
97 7.5000 1.6797
98 8.0000 1.5119
99 6.4286 0.8207
100 7.3125 1.4456
101 7.7222 1.8501
102 10.2564 2.2271
103 8.3810 2.3192
104 7.6250 2.3150
105 0.0000 0.0000
106 0.0000 0.0000
107 0.0000 0.0000
108 0.0000 0.0000
109 0.0000 0.0000
110 0.0000 0.0000
111 0.0000 0.0000
112 0.0000 0.0000
113 0.0000 0.0000
114 0.0000 0.0000
115 0.0000 0.0000
116 0.0000 0.0000
117 0.0000 0.0000
118 0.0000 0.0000
119 0.0000 0.0000
120 0.0000 0.0000
121 8.0000 1.0445
122 7.5714 1.7202
123 7.4167 2.1779
124 6.9286 1.7511
125 8.5200 2.0615
126 7.7419 1.5651
127 7.0833 1.6562
128 8.8889 3.4943
129 0.0000 0.0000
130 0.0000 0.0000
131 0.0000 0.0000
132 0.0000 0.0000
133 0.0000 0.0000
134 0.0000 0.0000
135 0.0000 0.0000
136 0.0000 0.0000
137 0.0000 0.0000
138 0.0000 0.0000
139 0.0000 0.0000
140 0.0000 0.0000
141 0.0000 0.0000
142 0.0000 0.0000
143 0.0000 0.0000
144 0.0000 0.0000
145 8.5294 2.0897
146 8.6000 2.4166
147 8.2778 2.9402
148 6.3000 1.9519
149 7.0000 1.0290
150 8.0952 1.8748
151 7.5556 1.3833
152 8.4118 2.1709
153 0.0000 0.0000
154 0.0000 0.0000
155 0.0000 0.0000
156 0.0000 0.0000
157 0.0000 0.0000
158 0.0000 0.0000
159 0.0000 0.0000
160 0.0000 0.0000
161 0.0000 0.0000
162 0.0000 0.0000
163 0.0000 0.0000
164 0.0000 0.0000
165 0.0000 0.0000
166 0.0000 0.0000
167 0.0000 0.0000
168 0.0000 0.0000
169 6.6250 1.0533
170 8.5652 2.0179
171 8.1923 1.9219
172 6.6667 1.2472
173 8.0000 1.4142
174 8.0000 1.6543
175 7.6667 2.0548
176 8.5882 2.1709
177 0.0000 0.0000
178 0.0000 0.0000
179 0.0000 0.0000
180 0.0000 0.0000
181 0.0000 0.0000
182 0.0000 0.0000
183 0.0000 0.0000
184 0.0000 0.0000
185 0.0000 0.0000
186 0.0000 0.0000
187 0.0000 0.0000
188 0.0000 0.0000
189 0.0000 0.0000
190 0.0000 0.0000
191 0.0000 0.0000
192 0.0000 0.0000
193 7.8696 2.1930
194 7.1429 1.8461
195 6.9565 0.8586
196 7.5000 1.5811
197 7.8333 1.9508
198 9.1200 2.8750
199 8.3333 2.2748
200 8.4286 2.5555
201 0.0000 0.0000
202 0.0000 0.0000
203 0.0000 0.0000
204 0.0000 0.0000
205 0.0000 0.0000
206 0.0000 0.0000
207 0.0000 0.0000
208 0.0000 0.0000
209 0.0000 0.0000
210 0.0000 0.0000
211 0.0000 0.0000
212 0.0000 0.0000
213 0.0000 0.0000
214 0.0000 0.0000
215 0.0000 0.0000
216 0.0000 0.0000
217 8.9259 1.8242
218 9.0476 2.5162
219 7.2308 1.8462
220 6.8182 1.3361
221 7.1429 1.9949
222 8.3529 1.8768
223 6.4444 1.5713
224 7.7857 2.5685
225 0.0000 0.0000
226 0.0000 0.0000
227 0.0000 0.0000
228 0.0000 0.0000
229 0.0000 0.0000
230 0.0000 0.0000
231 0.0000 0.0000
232 0.0000 0.0000
233 0.0000 0.0000
234 0.0000 0.0000
235 0.0000 0.0000
236 0.0000 0.0000
237 0.0000 0.0000
238 0.0000 0.0000
239 0.0000 0.0000
240 0.0000 0.0000
241 8.4500 2.1558
242 7.1765 1.7230
243 7.2778 1.0438
244 7.1667 1.4044
245 6.8462 1.4058
246 7.0000 1.7974
247 7.8750 1.4524
248 7.6471 1.1853
249 0.0000 0.0000
250 0.0000 0.0000
251 0.0000 0.0000
252 0.0000 0.0000
253 0.0000 0.0000
254 0.0000 0.0000
255 0.0000 0.0000
256 0.0000 0.0000
257 0.0000 0.0000
258 0.0000 0.0000
259 0.0000 0.0000
260 0.0000 0.0000
261 0.0000 0.0000
262 0.0000 0.0000
263 0.0000 0.0000
264 0.0000 0.0000
265 7.1333 1.2037
266 8.3333 2.6998
267 7.4000 2.0913
268 8.1111 2.1053
269 9.0435 2.4402
270 7.5294 1.7190
271 7.8000 2.1354
272 6.2727 2.3390
273 0.0000 0.0000
274 0.0000 0.0000
275 0.0000 0.0000
276 0.0000 0.0000
277 0.0000 0.0000
278 0.0000 0.0000
279 0.0000 0.0000
280 0.0000 0.0000
281 0.0000 0.0000
282 0.0000 0.0000
283 0.0000 0.0000
284 0.0000 0.0000
285 0.0000 0.0000
286 0.0000 0.0000
287 0.0000 0.0000
288 0.0000 0.0000
289 9.2083 2.1981
290 7.9048 1.7431
291 7.6471 1.6066
292 7.9167 1.8911
293 7.7500 1.5207
294 10.2727 2.8738
295 7.0000 2.0889
296 7.8750 1.8329
297 0.0000 0.0000
298 0.0000 0.0000
299 0.0000 0.0000
300 0.0000 0.0000
301 0.0000 0.0000
302 0.0000 0.0000
303 0.0000 0.0000
304 0.0000 0.0000
305 0.0000 0.0000
306 0.0000 0.0000
307 0.0000 0.0000
308 0.0000 0.0000
309 0.0000 0.0000
310 0.0000 0.0000
311 0.0000 0.0000
312 0.0000 0.0000
313 8.3636 1.7721
314 6.9286 1.7511
315 7.6667 1.9889
316 7.6000 1.5832
317 7.8947 1.5859
318 7.1579 1.7248
319 6.6667 2.0548
320 8.4615 2.3734
321 0.0000 0.0000
322 0.0000 0.0000
323 0.0000 0.0000
324 0.0000 0.0000
325 0.0000 0.0000
326 0.0000 0.0000
327 0.0000 0.0000
328 0.0000 0.0000
329 0.0000 0.0000
330 0.0000 0.0000
331 0.0000 0.0000
332 0.0000 0.0000
333 0.0000 0.0000
334 0.0000 0.0000
335 0.0000 0.0000
336 0.0000 0.0000
337 7.1538 1.7474
338 7.5714 2.0603
339 6.5385 1.1513
340 7.1538 2.0698
341 8.2500 2.2333
342 7.0000 1.6641
343 7.6429 1.9126
344 9.1250 2.6819
345 0.0000 0.0000
346 0.0000 0.0000
347 0.0000 0.0000
348 0.0000 0.0000
349 0.0000 0.0000
350 0.0000 0.0000
351 0.0000 0.0000
352 0.0000 0.0000
353 0.0000 0.0000
354 0.0000 0.0000
355 0.0000 0.0000
356 0.0000 0.0000
357 0.0000 0.0000
358 0.0000 0.0000
359 0.0000 0.0000
360 0.0000 0.0000
361 8.7059 2.2949
362 7.5333 1.6275
363 6.4286 1.1780
364 7.2667 1.8062
365 6.9412 1.3048
366 8.5714 2.3819
367 7.3636 1.2984
368 8.4348 2.0393
369 0.0000 0.0000
370 0.0000 0.0000
371 0.0000 0.0000
372 0.0000 0.0000
373 0.0000 0.0000
374 0.0000 0.0000
375 0.0000 0.0000
376 0.0000 0.0000
377 0.0000 0.0000
378 0.0000 0.0000
379 0.0000 0.0000
380 0.0000 0.0000
381 0.0000 0.0000
382 0.0000 0.0000
383 0.0000 0.0000
384 0.0000 0.0000
385 7.6667 2.3921
386 8.9259 1.9612
387 7.2500 1.8131
388 8.0000 1.9685
389 8.1429 1.4892
390 7.1000 2.0224
391 7.0714 1.9444
392 7.5882 1.6471
393 0.0000 0.0000
394 0.0000 0.0000
395 0.0000 0.0000
396 0.0000 0.0000
397 0.0000 0.0000
398 0.0000 0.0000
399 0.0000 0.0000
400 0.0000 0.0000
401 0.0000 0.0000
402 0.0000 0.0000
403 0.0000 0.0000
404 0.0000 0.0000
405 0.0000 0.0000
406 0.0000 0.0000
407 0.0000 0.0000
408 0.0000 0.0000
409 7.7857 2.1105
410 7.9375 2.6802
411 7.3750 2.2604
412 7.0000 1.7321
413 8.0556 2.2967
414 8.0000 1.9664
415 8.1818 2.3478
416 7.5556 1.6063
417 0.0000 0.0000
418 0.0000 0.0000
419 0.0000 0.0000
420 0.0000 0.0000
421 0.0000 0.0000
422 0.0000 0.0000
423 0.0000 0.0000
424 0.0000 0.0000
425 0.0000 0.0000
426 0.0000 0.0000
427 0.0000 0.0000
428 0.0000 0.0000
429 0.0000 0.0000
430 0.0000 0.0000
431 0.0000 0.0000
432 0.0000 0.0000
433 8.6818 1.5779
434 8.6667 2.5820
435 7.2500 1.7854
436 7.8125 1.5898
437 7.6250 1.8666
438 7.6875 1.5297
439 7.2857 1.9431
440 6.6154 1.2733
441 0.0000 0.0000
442 0.0000 0.0000
443 0.0000 0.0000
444 0.0000 0.0000
445 0.0000 0.0000
446 0.0000 0.0000
447 0.0000 0.0000
448 0.0000 0.0000
449 0.0000 0.0000
450 0.0000 0.0000
451 0.0000 0.0000
452 0.0000 0.0000
453 0.0000 0.0000
454 0.0000 0.0000
455 0.0000 0.0000
456 0.0000 0.0000
457 7.8667 2.0287
458 7.6923 2.1974
459 7.3125 1.1022
460 8.4800 1.4999
461 7.3810 1.6755
462 7.3333 1.7764
463 8.2941 2.5383
464 7.0625 1.8190
465 0.0000 0.0000
466 0.0000 0.0000
467 0.0000 0.0000
468 0.0000 0.0000
469 0.0000 0.0000
470 0.0000 0.0000
471 0.0000 0.0000
472 0.0000 0.0000
473 0.0000 0.0000
474 0.0000 0.0000
475 0.0000 0.0000
476 0.0000 0.0000
477 0.0000 0.0000
478 0.0000 0.0000
479 0.0000 0.0000
480 0.0000 0.0000
481 9.0385 2.4255
482 8.2941 2.5383
483 7.6429 1.7569
484 8.8182 2.4241
485 8.7143 2.2917
486 9.2381 2.5617
487 8.1176 2.5178
488 7.0000 1.6641
489 0.0000 0.0000
490 0.0000 0.0000
491 0.0000 0.0000
492 0.0000 0.0000
493 0.0000 0.0000
494 0.0000 0.0000
495 0.0000 0.0000
496 0.0000 0.0000
497 0.0000 0.0000
498 0.0000 0.0000
499 0.0000 0.0000
500 0.0000 0.0000
501 0.0000 0.0000
502 0.0000 0.0000
503 0.0000 0.0000
504 0.0000 0.0000
505 8.1667 2.4552
506 8.8333 2.1667
507 7.5833 1.8911
508 9.0000 3.6362
509 7.4000 1.7720
510 8.5000 2.6926
511 8.1364 2.2217
512 6.5714 1.2936
513 0.0000 0.0000
514 0.0000 0.0000
515 0.0000 0.0000
516 0.0000 0.0000
517 0.0000 0.0000
518 0.0000 0.0000
519 0.0000 0.0000
520 0.0000 0.0000
521 0.0000 0.0000
522 0.0000 0.0000
523 0.0000 0.0000
524 0.0000 0.0000
525 0.0000 0.0000
526 0.0000 0.0000
527 0.0000 0.0000
528 0.0000 0.0000
529 7.4167 1.4977
530 8.5000 2.3184
531 8.0667 1.9821
532 8.0000 1.8091
533 7.6429 1.9859
534 9.2941 2.9057
535 8.0000 2.0702
536 8.2917 1.9891
537 0.0000 0.0000
538 0.0000 0.0000
539 0.0000 0.0000
540 0.0000 0.0000
541 0.0000 0.0000
542 0.0000 0.0000
543 0.0000 0.0000
544 0.0000 0.0000
545 0.0000 0.0000
546 0.0000 0.0000
547 0.0000 0.0000
548 0.0000 0.0000
549 0.0000 0.0000
550 0.0000 0.0000
551 0.0000 0.0000
552 0.0000 0.0000
553 7.1818 2.3284
554 7.6471 1.8131
555 7.3810 0.8985
556 8.2000 2.5871
557 7.8125 2.0068
558 7.1667 1.3017
559 6.8824 1.2780
560 7.8667 1.9276
561 0.0000 0.0000
562 0.0000 0.0000
563 0.0000 0.0000
564 0.0000 0.0000
565 0.0000 0.0000
566 0.0000 0.0000
567 0.0000 0.0000
568 0.0000 0.0000
569 0.0000 0.0000
570 0.0000 0.0000
571 0.0000 0.0000
572 0.0000 0.0000
573 0.0000 0.0000
574 0.0000 0.0000
575 0.0000 0.0000
576 0.0000 0.0000
577 8.0556 1.3933
578 7.7059 1.6721
579 7.1875 1.3793
580 7.8750 2.0879
581 10.3235 2.9577
582 6.8182 2.2890
583 7.0000 1.5191
584 7.2222 1.0304
585 0.0000 0.0000
586 0.0000 0.0000
587 0.0000 0.0000
588 0.0000 0.0000
589 0.0000 0.0000
590 0.0000 0.0000
591 0.0000 0.0000
592 0.0000 0.0000
593 0.0000 0.0000
594 0.0000 0.0000
595 0.0000 0.0000
596 0.0000 0.0000
597 0.0000 0.0000
598 0.0000 0.0000
599 0.0000 0.0000
600 0.0000 0.0000
601 8.1111 2.0787
602 6.9167 1.1149
603 6.3636 1.9199
604 7.3571 1.8749
605 8.5000 1.7842
606 7.0000 2.4202
607 6.5833 1.8465
608 8.9000 2.7731
609 0.0000 0.0000
610 0.0000 0.0000
611 0.0000 0.0000
612 0.0000 0.0000
613 0.0000 0.0000
614 0.0000 0.0000
615 0.0000 0.0000
616 0.0000 0.0000
617 0.0000 0.0000
618 0.0000 0.0000
619 0.0000 0.0000
620 0.0000 0.0000
621 0.0000 0.0000
622 0.0000 0.0000
623 0.0000 0.0000
624 0.0000 0.0000
625 6.6923 1.8967
626 7.0000 1.7974
627 8.9091 2.3724
628 9.0870 2.2246
629 7.4211 1.8727
630 6.7857 1.5666
631 8.4348 1.7895
632 7.0833 1.7540
633 0.0000 0.0000
634 0.0000 0.0000
635 0.0000 0.0000
636 0.0000 0.0000
637 0.0000 0.0000
638 0.0000 0.0000
639 0.0000 0.0000
640 0.0000 0.0000
641 0.0000 0.0000
642 0.0000 0.0000
643 0.0000 0.0000
644 0.0000 0.0000
645 0.0000 0.0000
646 0.0000 0.0000
647 0.0000 0.0000
648 0.0000 0.0000
649 7.3889 1.5326
650 7.8421 1.7551
651 8.5200 1.8137
652 7.0000 1.5811
653 10.2222 3.5987
654 8.2778 2.0765
655 8.4091 2.3676
656 7.3333 1.6193
657 0.0000 0.0000
658 0.0000 0.0000
659 0.0000 0.0000
660 0.0000 0.0000
661 0.0000 0.0000
662 0.0000 0.0000
663 0.0000 0.0000
664 0.0000 0.0000
665 0.0000 0.0000
666 0.0000 0.0000
667 0.0000 0.0000
668 0.0000 0.0000
669 0.0000 0.0000
670 0.0000 0.0000
671 0.0000 0.0000
672 0.0000 0.0000
673 7.8750 1.7275
674 8.1923 1.3593
675 6.6667 1.3499
676 7.0000 1.3333
677 7.8125 1.5091
678 7.0000 1.9069
679 5.2857 1.5779
680 7.6842 1.5912
681 0.0000 0.0000
682 0.0000 0.0000
683 0.0000 0.0000
684 0.0000 0.0000
685 0.0000 0.0000
686 0.0000 0.0000
687 0.0000 0.0000
688 0.0000 0.0000
689 0.0000 0.0000
690 0.0000 0.0000
691 0.0000 0.0000
692 0.0000 0.0000
693 0.0000 0.0000
694 0.0000 0.0000
695 0.0000 0.0000
696 0.0000 0.0000
697 8.0435 1.8761
698 6.2308 1.6712
699 8.0769 1.5423
700 7.6875 2.0530
701 8.4000 2.7821
702 9.1071 1.6548
703 7.6667 2.4608
704 7.1667 2.1148
705 0.0000 0.0000
706 0.0000 0.0000
707 0.0000 0.0000
708 0.0000 0.0000
709 0.0000 0.0000
710 0.0000 0.0000
711 0.0000 0.0000
712 0.0000 0.0000
713 0.0000 0.0000
714 0.0000 0.0000
715 0.0000 0.0000
716 0.0000 0.0000
717 0.0000 0.0000
718 0.0000 0.0000
719 0.0000 0.0000
720 0.0000 0.0000
721 6.9444 1.5082
722 8.6316 2.0055
723 8.6400 1.7636
724 8.3500 1.8241
725 7.6471 2.0563
726 7.8000 1.6912
727 8.0556 1.7150
728 6.8571 1.8461
729 0.0000 0.0000
730 0.0000 0.0000
731 0.0000 0.0000
732 0.0000 0.0000
733 0.0000 0.0000
734 0.0000 0.0000
735 0.0000 0.0000
736 0.0000 0.0000
737 0.0000 0.0000
738 0.0000 0.0000
739 0.0000 0.0000
740 0.0000 0.0000
741 0.0000 0.0000
742 0.0000 0.0000
743 0.0000 0.0000
744 0.0000 0.0000
745 6.3000 1.9000
746 7.5000 1.5366
747 6.3333 1.3744
748 8.0000 1.0000
749 6.8000 0.9798
750 7.2632 1.6493
751 8.4615 2.0424
752 7.5000 1.8028
753 0.0000 0.0000
754 0.0000 0.0000
755 0.0000 0.0000
756 0.0000 0.0000
757 0.0000 0.0000
758 0.0000 0.0000
759 0.0000 0.0000
760 0.0000 0.0000
761 0.0000 0.0000
762 0.0000 0.0000
763 0.0000 0.0000
764 0.0000 0.0000
765 0.0000 0.0000
766 0.0000 0.0000
767 0.0000 0.0000
768 0.0000 0.0000
769 6.2143 1.1451
770 7.9412 2.0138
771 7.4500 1.0712
772 7.8571 1.3553
773 7.4167 2.1779
774 8.3824 1.5907
775 6.9524 1.7856
776 8.4444 2.1915
777 0.0000 0.0000
778 0.0000 0.0000
779 0.0000 0.0000
780 0.0000 0.0000
781 0.0000 0.0000
782 0.0000 0.0000
783 0.0000 0.0000
784 0.0000 0.0000
785 0.0000 0.0000
786 0.0000 0.0000
787 0.0000 0.0000
788 0.0000 0.0000
789 0.0000 0.0000
790 0.0000 0.0000
791 0.0000 0.0000
792 0.0000 0.0000
793 7.2222 1.5476
794 8.2381 2.5431
795 7.2353 1.6638
796 7.7273 2.2998
797 8.4667 4.2405
798 8.9200 1.5211
799 7.1333 1.6275
800 6.4167 1.4977
801 0.0000 0.0000
802 0.0000 0.0000
803 0.0000 0.0000
804 0.0000 0.0000
805 0.0000 0.0000
806 0.0000 0.0000
807 0.0000 0.0000
808 0.0000 0.0000
809 0.0000 0.0000
810 0.0000 0.0000
811 0.0000 0.0000
812 0.0000 0.0000
813 0.0000 0.0000
814 0.0000 0.0000
815 0.0000 0.0000
816 0.0000 0.0000
817 7.3333 1.1055
818 7.8333 2.0344
819 7.5625 1.9675
820 7.6667 1.9437
821 6.7857 1.6552
822 7.2667 1.9137
823 6.4545 1.8273
824 7.6842 2.5351
825 0.0000 0.0000
826 0.0000 0.0000
827 0.0000 0.0000
828 0.0000 0.0000
829 0.0000 0.0000
830 0.0000 0.0000
831 0.0000 0.0000
832 0.0000 0.0000
833 0.0000 0.0000
834 0.0000 0.0000
835 0.0000 0.0000
836 0.0000 0.0000
837 0.0000 0.0000
838 0.0000 0.0000
839 0.0000 0.0000
840 0.0000 0.0000
841 8.5500 2.2467
842 7.8636 1.6867
843 7.9412 2.0138
844 7.3333 1.8257
845 7.7500 2.0767
846 6.6923 1.5877
847 7.8333 1.9791
848 6.5333 1.3597
849 0.0000 0.0000
850 0.0000 0.0000
851 0.0000 0.0000
852 0.0000 0.0000
853 0.0000 0.0000
854 0.0000 0.0000
855 0.0000 0.0000
856 0.0000 0.0000
857 0.0000 0.0000
858 0.0000 0.0000
859 0.0000 0.0000
860 0.0000 0.0000
861 0.0000 0.0000
862 0.0000 0.0000
863 0.0000 0.0000
864 0.0000 0.0000
865 7.7857 2.5685
866 7.3125 2.2282
867 7.3077 1.7269
868 7.1538 1.5614
869 6.6000 2.0913
870 8.8000 2.1587
871 7.0714 2.3134
872 7.6429 2.1583
873 0.0000 0.0000
874 0.0000 0.0000
875 0.0000 0.0000
876 0.0000 0.0000
877 0.0000 0.0000
878 0.0000 0.0000
879 0.0000 0.0000
880 0.0000 0.0000
881 0.0000 0.0000
882 0.0000 0.0000
883 0.0000 0.0000
884 0.0000 0.0000
885 0.0000 0.0000
886 0.0000 0.0000
887 0.0000 0.0000
888 0.0000 0.0000
889 8.0500 1.7457
890 8.3529 2.6109
891 6.4000 1.4967
892 8.4000 2.3324
893 7.0588 1.2113
894 7.8571 2.0653
895 8.6471 2.4957
896 9.0400 2.2535
897 0.0000 0.0000
898 0.0000 0.0000
899 0.0000 0.0000
900 0.0000 0.0000
901 0.0000 0.0000
902 0.0000 0.0000
903 0.0000 0.0000
904 0.0000 0.0000
905 0.0000 0.0000
906 0.0000 0.0000
907 0.0000 0.0000
908 0.0000 0.0000
909 0.0000 0.0000
910 0.0000 0.0000
911 0.0000 0.0000
912 0.0000 0.0000
913 7.4167 2.6286
914 7.3846 2.0206
915 7.5238 1.6795
916 7.7222 1.7890
917 7.6000 2.3324
918 7.7083 1.3687
919 8.5238 1.8928
920 8.9231 2.2689
921 0.0000 0.0000
922 0.0000 0.0000
923 0.0000 0.0000
924 0.0000 0.0000
925 0.0000 0.0000
926 0.0000 0.0000
927 0.0000 0.0000
928 0.0000 0.0000
929 0.0000 0.0000
930 0.0000 0.0000
931 0.0000 0.0000
932 0.0000 0.0000
933 0.0000 0.0000
934 0.0000 0.0000
935 0.0000 0.0000
936 0.0000 0.0000
937 6.9412 1.4741
938 8.2222 2.1228
939 7.0667 0.9978
940 6.2308 1.2499
941 7.2857 1.7900
942 7.1176 1.3232
943 8.1765 2.0069
944 6.8182 1.2662
945 0.0000 0.0000
946 0.0000 0.0000
947 0.0000 0.0000
948 0.0000 0.0000
949 0.0000 0.0000
950 0.0000 0.0000
951 0.0000 0.0000
952 0.0000 0.0000
953 0.0000 0.0000
954 0.0000 0.0000
955 0.0000 0.0000
956 0.0000 0.0000
957 0.0000 0.0000
958 0.0000 0.0000
959 0.0000 0.0000
960 0.0000 0.0000
961 7.9444 1.7471
962 8.8696 1.8487
963 8.9167 2.3259
964 7.8125 1.8781
965 8.9048 2.0909
966 8.4211 2.2080
967 7.7368 2.2441
968 7.0833 1.5523
969 0.0000 0.0000
970 0.0000 0.0000
971 0.0000 0.0000
972 0.0000 0.0000
973 0.0000 0.0000
974 0.0000 0.0000
975 0.0000 0.0000
976 0.0000 0.0000
977 0.0000 0.0000
978 0.0000 0.0000
979 0.0000 0.0000
980 0.0000 0.0000
981 0.0000 0.0000
982 0.0000 0.0000
983 0.0000 0.0000
984 0.0000 0.0000
985 7.0833 1.8008
986 6.7778 1.5113
987 9.6111 2.8312
988 8.0556 3.0817
989 7.7391 0.9876
990 8.1538 2.8782
991 8.0526 1.6693
992 8.0556 1.9285
993 0.0000 0.0000
994 0.0000 0.0000
995 0.0000 0.0000
996 0.0000 0.0000
997 0.0000 0.0000
998 0.0000 0.0000
999 0.0000 0.0000
1000 0.0000 0.0000
1001 0.0000 0.0000
1002 0.0000 0.0000
1003 0.0000 0.0000
1004 0.0000 0.0000
1005 0.0000 0.0000
1006 0.0000 0.0000
1007 0.0000 0.0000
1008 0.0000 0.0000
1009 7.7059 2.4915
1010 7.3529 1.9079
1011 8.1579 1.8991
1012 7.6000 2.4980
1013 7.5882 1.9721
1014 9.0000 1.6125
1015 7.2500 1.1990
1016 8.2500 1.4448
1017 0.0000 0.0000
1018 0.0000 0.0000
1019 0.0000 0.0000
1020 0.0000 0.0000
1021 0.0000 0.0000
1022 0.0000 0.0000
1023 0.0000 0.0000
1024 0.0000 0.0000
1025 0.0000 0.0000
1026 0.0000 0.0000
1027 0.0000 0.0000
1028 0.0000 0.0000
1029 0.0000 0.0000
1030 0.0000 0.0000
1031 0.0000 0.0000
1032 0.0000 0.0000
1033 7.3889 1.7682
1034 7.8571 2.1993
1035 7.0667 1.2893
1036 8.4000 2.1772
1037 7.0000 1.4142
1038 7.8667 1.5434
1039 7.1333 1.2579
1040 7.9333 2.6949
1041 0.0000 0.0000
1042 0.0000 0.0000
1043 0.0000 0.0000
1044 0.0000 0.0000
1045 0.0000 0.0000
1046 0.0000 0.0000
1047 0.0000 0.0000
1048 0.0000 0.0000
1049 0.0000 0.0000
1050 0.0000 0.0000
1051 0.0000 0.0000
1052 0.0000 0.0000
1053 0.0000 0.0000
1054 0.0000 0.0000
1055 0.0000 0.0000
1056 0.0000 0.0000
1057 7.5789 1.4259
1058 8.0833 1.9983
1059 7.0000 1.6036
1060 8.5556 2.4771
1061 8.2941 2.1355
1062 7.0909 2.5029
1063 6.4286 1.9166
1064 7.2222 1.3966
1065 0.0000 0.0000
1066 0.0000 0.0000
1067 0.0000 0.0000
1068 0.0000 0.0000
1069 0.0000 0.0000
1070 0.0000 0.0000
1071 0.0000 0.0000
1072 0.0000 0.0000
1073 0.0000 0.0000
1074 0.0000 0.0000
1075 0.0000 0.0000
1076 0.0000 0.0000
1077 0.0000 0.0000
1078 0.0000 0.0000
1079 0.0000 0.0000
1080 0.0000 0.0000
1081 7.0000 2.3205
1082 8.4375 2.5731
1083 7.7895 2.3074
1084 8.0455 1.9418
1085 8.5789 2.0600
1086 9.1923 2.3042
1087 8.0000 1.6583
1088 7.5385 2.4687
1089 0.0000 0.0000
1090 0.0000 0.0000
1091 0.0000 0.0000
1092 0.0000 0.0000
1093 0.0000 0.0000
1094 0.0000 0.0000
1095 0.0000 0.0000
1096 0.0000 0.0000
1097 0.0000 0.0000
1098 0.0000 0.0000
1099 0.0000 0.0000
1100 0.0000 0.0000
1101 0.0000 0.0000
1102 0.0000 0.0000
1103 0.0000 0.0000
1104 0.0000 0.0000
1105 7.5263 1.1863
1106 7.4737 1.4643
1107 8.2353 2.3397
1108 6.0909 1.5048
1109 8.6250 2.4292
1110 8.6800 1.8915
1111 6.9333 1.1813
1112 7.4000 1.5832
1113 0.0000 0.0000
1114 0.0000 0.0000
1115 0.0000 0.0000
1116 0.0000 0.0000
1117 0.0000 0.0000
1118 0.0000 0.0000
1119 0.0000 0.0000
1120 0.0000 0.0000
1121 0.0000 0.0000
1122 0.0000 0.0000
1123 0.0000 0.0000
1124 0.0000 0.0000
1125 0.0000 0.0000
1126 0.0000 0.0000
1127 0.0000 0.0000
1128 0.0000 0.0000
1129 8.6957 1.8982
1130 7.8947 2.2687
1131 7.7500 2.0052
1132 8.8750 2.0679
1133 7.3846 1.9430
1134 7.3333 1.7951
1135 7.0714 1.6241
1136 6.6923 1.3803
1137 0.0000 0.0000
1138 0.0000 0.0000
1139 0.0000 0.0000
1140 0.0000 0.0000
1141 0.0000 0.0000
1142 0.0000 0.0000
1143 0.0000 0.0000
1144 0.0000 0.0000
1145 0.0000 0.0000
1146 0.0000 0.0000
1147 0.0000 0.0000
1148 0.0000 0.0000
1149 0.0000 0.0000
1150 0.0000 0.0000
1151 0.0000 0.0000
1152 0.0000 0.0000
1153 8.5000 1.6720
1154 8.4444 2.2167
1155 7.4375 2.0300
1156 7.8667 2.0934
1157 7.9375 2.3840
1158 10.3793 2.6446
1159 7.2143 1.8966
1160 7.3333 2.2111
1161 0.0000 0.0000
1162 0.0000 0.0000
1163 0.0000 0.0000
1164 0.0000 0.0000
1165 0.0000 0.0000
1166 0.0000 0.0000
1167 0.0000 0.0000
1168 0.0000 0.0000
1169 0.0000 0.0000
1170 0.0000 0.0000
1171 0.0000 0.0000
1172 0.0000 0.0000
1173 0.0000 0.0000
1174 0.0000 0.0000
1175 0.0000 0.0000
1176 0.0000 0.0000
1177 7.3125 2.0832
1178 7.2727 2.0490
1179 8.2083 1.8480
1180 7.7333 2.5157
1181 7.1667 1.9508
1182 8.6667 2.8206
1183 7.5263 1.8171
1184 8.2941 2.4196
1185 0.0000 0.0000
1186 0.0000 0.0000
1187 0.0000 0.0000
1188 0.0000 0.0000
1189 0.0000 0.0000
1190 0.0000 0.0000
1191 0.0000 0.0000
1192 0.0000 0.0000
1193 0.0000 0.0000
1194 0.0000 0.0000
1195 0.0000 0.0000
1196 0.0000 0.0000
1197 0.0000 0.0000
1198 0.0000 0.0000
1199 0.0000 0.0000
1200 0.0000 0.0000
1201 6.6875 1.3564
1202 7.8125 1.4671
1203 8.1667 2.2669
1204 8.4118 2.8297
1205 7.8095 1.6795
1206 7.7333 1.8427
1207 8.0500 1.4992
1208 7.0714 1.4863
1209 0.0000 0.0000
1210 0.0000 0.0000
1211 0.0000 0.0000
1212 0.0000 0.0000
1213 0.0000 0.0000
1214 0.0000 0.0000
1215 0.0000 0.0000
1216 0.0000 0.0000
1217 0.0000 0.0000
1218 0.0000 0.0000
1219 0.0000 0.0000
1220 0.0000 0.0000
1221 0.0000 0.0000
1222 0.0000 0.0000
1223 0.0000 0.0000
1224 0.0000 0.0000
1225 7.2727 2.2998
1226 7.3077 1.6818
1227 7.1579 1.7848
1228 6.6923 2.3000
1229 8.2308 1.1867
1230 8.7391 1.6995
1231 9.3158 3.4801
1232 8.2083 1.6578
1233 0.0000 0.0000
1234 0.0000 0.0000
1235 0.0000 0.0000
1236 0.0000 0.0000
1237 0.0000 0.0000
1238 0.0000 0.0000
1239 0.0000 0.0000
1240 0.0000 0.0000
1241 0.0000 0.0000
1242 0.0000 0.0000
1243 0.0000 0.0000
1244 0.0000 0.0000
1245 0.0000 0.0000
1246 0.0000 0.0000
1247 0.0000 0.0000
1248 0.0000 0.0000
1249 8.7600 1.7727
1250 8.3077 1.8138
1251 8.6500 2.5353
1252 8.6667 2.6034
1253 7.9444 1.9853
1254 8.1333 2.3907
1255 6.9231 1.2686
1256 8.0000 2.5355
1257 0.0000 0.0000
1258 0.0000 0.0000
1259 0.0000 0.0000
1260 0.0000 0.0000
1261 0.0000 0.0000
1262 0.0000 0.0000
1263 0.0000 0.0000
1264 0.0000 0.0000
1265 0.0000 0.0000
1266 0.0000 0.0000
1267 0.0000 0.0000
1268 0.0000 0.0000
1269 0.0000 0.0000
1270 0.0000 0.0000
1271 0.0000 0.0000
1272 0.0000 0.0000
1273 8.3529 1.5696
1274 7.8235 2.2025
1275 6.5333 0.9568
1276 7.9444 1.6149
1277 8.0588 1.9242
1278 7.6500 1.5580
1279 7.9444 2.0675
1280 6.6875 1.2103
1281 0.0000 0.0000
1282 0.0000 0.0000
1283 0.0000 0.0000
1284 0.0000 0.0000
1285 0.0000 0.0000
1286 0.0000 0.0000
1287 0.0000 0.0000
1288 0.0000 0.0000
1289 0.0000 0.0000
1290 0.0000 0.0000
1291 0.0000 0.0000
1292 0.0000 0.0000
1293 0.0000 0.0000
1294 0.0000 0.0000
1295 0.0000 0.0000
1296 0.0000 0.0000
1297 7.3125 0.9823
1298 7.5333 1.7075
1299 8.5000 2.4187
1300 8.0588 1.7977
1301 7.1250 1.6910
1302 8.1053 2.5730
1303 7.0714 2.1865
1304 5.5000 1.3601
1305 0.0000 0.0000
1306 0.0000 0.0000
1307 0.0000 0.0000
1308 0.0000 0.0000
1309 0.0000 0.0000
1310 0.0000 0.0000
1311 0.0000 0.0000
1312 0.0000 0.0000
1313 0.0000 0.0000
1314 0.0000 0.0000
1315 0.0000 0.0000
1316 0.0000 0.0000
1317 0.0000 0.0000
1318 0.0000 0.0000
1319 0.0000 0.0000
1320 0.0000 0.0000
1321 6.5833 2.2898
1322 8.7222 2.8246
1323 8.4444 1.9500
1324 8.0500 2.2017
1325 8.3750 1.1479
1326 9.0526 2.6452
1327 6.5909 1.0295
1328 8.2222 1.7498
1329 0.0000 0.0000
1330 0.0000 0.0000
1331 0.0000 0.0000
1332 0.0000 0.0000
1333 0.0000 0.0000
1334 0.0000 0.0000
1335 0.0000 0.0000
1336 0.0000 0.0000
1337 0.0000 0.0000
1338 0.0000 0.0000
1339 0.0000 0.0000
1340 0.0000 0.0000
1341 0.0000 0.0000
1342 0.0000 0.0000
1343 0.0000 0.0000
1344 0.0000 0.0000
1345 7.1875 1.5499
1346 7.9474 1.5719
1347 10.2941 3.0344
1348 6.6154 1.8621
1349 8.0526 2.4810
1350 6.8667 2.5785
1351 7.4615 2.1345
1352 7.4286 1.8406
1353 0.0000 0.0000
1354 0.0000 0.0000
1355 0.0000 0.0000
1356 0.0000 0.0000
1357 0.0000 0.0000
1358 0.0000 0.0000
1359 0.0000 0.0000
1360 0.0000 0.0000
1361 0.0000 0.0000
1362 0.0000 0.0000
1363 0.0000 0.0000
1364 0.0000 0.0000
1365 0.0000 0.0000
1366 0.0000 0.0000
1367 0.0000 0.0000
1368 0.0000 0.0000
1369 7.6087 1.2765
1370 8.0000 1.5894
1371 7.7059 2.3705
1372 7.7368 1.7724
1373 6.8000 2.0067
1374 6.0000 1.8028
1375 7.0000 2.1320
1376 8.2632 2.0220
1377 0.0000 0.0000
1378 0.0000 0.0000
1379 0.0000 0.0000
1380 0.0000 0.0000
1381 0.0000 0.0000
1382 0.0000 0.0000
1383 0.0000 0.0000
1384 0.0000 0.0000
1385 0.0000 0.0000
1386 0.0000 0.0000
1387 0.0000 0.0000
1388 0.0000 0.0000
1389 0.0000 0.0000
1390 0.0000 0.0000
1391 0.0000 0.0000
1392 0.0000 0.0000
1393 7.9375 2.7034
1394 7.8947 1.5859
1395 7.9167 1.3202
1396 6.5556 1.4990
1397 9.5000 3.0046
1398 8.2941 1.9331
1399 7.4500 1.0712
1400 7.5833 1.8465
1401 0.0000 0.0000
1402 0.0000 0.0000
1403 0.0000 0.0000
1404 0.0000 0.0000
1405 0.0000 0.0000
1406 0.0000 0.0000
1407 0.0000 0.0000
1408 0.0000 0.0000
1409 0.0000 0.0000
1410 0.0000 0.0000
1411 0.0000 0.0000
1412 0.0000 0.0000
1413 0.0000 0.0000
1414 0.0000 0.0000
1415 0.0000 0.0000
1416 0.0000 0.0000
1417 6.7500 1.8314
1418 6.9167 1.8911
1419 8.1667 1.3844
1420 7.6667 2.0548
1421 8.4286 2.0371
1422 7.2632 1.4083
1423 7.2143 2.1440
1424 7.3571 1.2310
1425 0.0000 0.0000
1426 0.0000 0.0000
1427 0.0000 0.0000
1428 0.0000 0.0000
1429 0.0000 0.0000
1430 0.0000 0.0000
1431 0.0000 0.0000
1432 0.0000 0.0000
1433 0.0000 0.0000
1434 0.0000 0.0000
1435 0.0000 0.0000
1436 0.0000 0.0000
1437 0.0000 0.0000
1438 0.0000 0.0000
1439 0.0000 0.0000
1440 0.0000 0.0000
1441 7.6429 2.4671
1442 8.1739 1.5507
1443 7.5833 2.4310
1444 8.3333 2.3851
1445 10.1111 2.7666
1446 7.8000 1.7588
1447 8.5833 1.8465
1448 9.3333 2.1731
1449 0.0000 0.0000
1450 0.0000 0.0000
1451 0.0000 0.0000
1452 0.0000 0.0000
1453 0.0000 0.0000
1454 0.0000 0.0000
1455 0.0000 0.0000
1456 0.0000 0.0000
1457 0.0000 0.0000
1458 0.0000 0.0000
1459 0.0000 0.0000
1460 0.0000 0.0000
1461 0.0000 0.0000
1462 0.0000 0.0000
1463 0.0000 0.0000
1464 0.0000 0.0000
1465 7.6111 1.5326
1466 7.0714 1.4375
1467 8.2105 1.2806
1468 7.4211 1.8727
1469 6.9333 1.9482
1470 8.1818 2.1666
1471 8.1200 1.5574
1472 7.6842 2.0788
1473 0.0000 0.0000
1474 0.0000 0.0000
1475 0.0000 0.0000
1476 0.0000 0.0000
1477 0.0000 0.0000
1478 0.0000 0.0000
1479 0.0000 0.0000
1480 0.0000 0.0000
1481 0.0000 0.0000
1482 0.0000 0.0000
1483 0.0000 0.0000
1484 0.0000 0.0000
1485 0.0000 0.0000
1486 0.0000 0.0000
1487 0.0000 0.0000
1488 0.0000 0.0000
1489 6.7692 1.6245
1490 8.0000 1.7889
1491 7.6842 1.6875
1492 7.0769 1.3846
1493 7.2500 1.7139
1494 7.3684 1.3460
1495 6.5455 1.8273
1496 7.6000 2.8237
1497 0.0000 0.0000
1498 0.0000 0.0000
1499 0.0000 0.0000
1500 0.0000 0.0000
1501 0.0000 0.0000
1502 0.0000 0.0000
1503 0.0000 0.0000
1504 0.0000 0.0000
1505 0.0000 0.0000
1506 0.0000 0.0000
1507 0.0000 0.0000
1508 0.0000 0.0000
1509 0.0000 0.0000
1510 0.0000 0.0000
1511 0.0000 0.0000
1512 0.0000 0.0000
1513 7.8182 2.0144
1514 7.7895 1.7344
1515 6.1818 1.1923
1516 7.7273 1.6006
1517 8.0000 2.2039
1518 8.0000 1.6940
1519 7.3889 1.8300
1520 7.1111 2.5142
1521 0.0000 0.0000
1522 0.0000 0.0000
1523 0.0000 0.0000
1524 0.0000 0.0000
1525 0.0000 0.0000
1526 0.0000 0.0000
1527 0.0000 0.0000
1528 0.0000 0.0000
1529 0.0000 0.0000
1530 0.0000 0.0000
1531 0.0000 0.0000
1532 0.0000 0.0000
1533 0.0000 0.0000
1534 0.0000 0.0000
1535 0.0000 0.0000
1536 0.0000 0.0000
1537 7.8182 1.5266
1538 8.5263 1.8742
1539 7.5000 2.0069
1540 7.7692 2.6063
1541 8.1818 1.6414
1542 8.2000 2.4549
1543 7.9375 1.5194
1544 7.0714 1.8695
1545 0.0000 0.0000
1546 0.0000 0.0000
1547 0.0000 0.0000
1548 0.0000 0.0000
1549 0.0000 0.0000
1550 0.0000 0.0000
1551 0.0000 0.0000
1552 0.0000 0.0000
1553 0.0000 0.0000
1554 0.0000 0.0000
1555 0.0000 0.0000
1556 0.0000 0.0000
1557 0.0000 0.0000
1558 0.0000 0.0000
1559 0.0000 0.0000
1560 0.0000 0.0000
1561 8.0556 2.2724
1562 7.3158 2.1534
1563 8.4231 1.6449
1564 7.9048 1.3058
1565 6.5882 0.9737
1566 7.7857 1.8197
1567 9.0345 1.9561
1568 8.4231 2.0971
1569 0.0000 0.0000
1570 0.0000 0.0000
1571 0.0000 0.0000
1572 0.0000 0.0000
1573 0.0000 0.0000
1574 0.0000 0.0000
1575 0.0000 0.0000
1576 0.0000 0.0000
1577 0.0000 0.0000
1578 0.0000 0.0000
1579 0.0000 0.0000
1580 0.0000 0.0000
1581 0.0000 0.0000
1582 0.0000 0.0000
1583 0.0000 0.0000
1584 0.0000 0.0000
1585 7.8500 1.8241
1586 8.8148 1.8666
1587 8.4706 1.4997
1588 7.3810 1.5879
1589 7.1818 1.8497
1590 8.2308 3.1660
1591 7.5000 2.0266
1592 8.1053 1.7136
1593 0.0000 0.0000
1594 0.0000 0.0000
1595 0.0000 0.0000
1596 0.0000 0.0000
1597 0.0000 0.0000
1598 0.0000 0.0000
1599 0.0000 0.0000
1600 0.0000 0.0000
1601 0.0000 0.0000
1602 0.0000 0.0000
1603 0.0000 0.0000
1604 0.0000 0.0000
1605 0.0000 0.0000
1606 0.0000 0.0000
1607 0.0000 0.0000
1608 0.0000 0.0000
1609 7.8824 1.5294
1610 7.8824 1.0222
1611 8.5238 1.8158
1612 8.1500 1.6210
1613 9.5238 2.0614
1614 8.6957 2.1148
1615 7.7143 1.8295
1616 8.0526 1.5035
1617 0.0000 0.0000
1618 0.0000 0.0000
1619 0.0000 0.0000
1620 0.0000 0.0000
1621 0.0000 0.0000
1622 0.0000 0.0000
1623 0.0000 0.0000
1624 0.0000 0.0000
1625 0.0000 0.0000
1626 0.0000 0.0000
1627 0.0000 0.0000
1628 0.0000 0.0000