ITEM: TIMESTEP
0
ITEM: NUMBER OF ATOMS
5184
ITEM: BOX BOUNDS pp pp pp
0.000000 42.810701
0.000000 42.810701
0.000000 42.810701
ITEM: ATOMS id c_arpn c_srpn
1 6.9231 1.6853
2 6.7692 1.7166
3 6.0000 2.1602
4 7.3529 1.9385
5 6.6000 0.9522
6 6.4167 0.7592
7 6.8571 1.3553
8 6.0000 1.6330
9 0.0000 0.0000
10 0.0000 0.0000
11 0.0000 0.0000
12 0.0000 0.0000
13 0.0000 0.0000
14 0.0000 0.0000
15 0.0000 0.0000
16 0.0000 0.0000
17 0.0000 0.0000
18 0.0000 0.0000
19 0.0000 0.0000
20 0.0000 0.0000
21 0.0000 0.0000
22 0.0000 0.0000
23 0.0000 0.0000
24 0.0000 0.0000
25 7.6875 2.3108
26 7.7143 1.9060
27 6.6250 0.9922
28 6.9000 2.2113
29 7.4375 1.7667
30 5.5714 1.4983
31 6.0000 1.2472
32 6.5000 1.0408
33 0.0000 0.0000
34 0.0000 0.0000
35 0.0000 0.0000
36 0.0000 0.0000
37 0.0000 0.0000
38 0.0000 0.0000
39 0.0000 0.0000
40 0.0000 0.0000
41 0.0000 0.0000
42 0.0000 0.0000
43 0.0000 0.0000
44 0.0000 0.0000
45 0.0000 0.0000
46 0.0000 0.0000
47 0.0000 0.0000
48 0.0000 0.0000
49 6.5000 1.3229
50 5.7273 1.9582
51 5.8000 0.9798
52 6.1818 1.7999
53 6.4444 1.3426
54 6.8462 1.4595
55 5.6364 1.2264
56 6.4286 0.9035
57 0.0000 0.0000
58 0.0000 0.0000
59 0.0000 0.0000
60 0.0000 0.0000
61 0.0000 0.0000
62 0.0000 0.0000
63 0.0000 0.0000
64 0.0000 0.0000
65 0.0000 0.0000
66 0.0000 0.0000
67 0.0000 0.0000
68 0.0000 0.0000
69 0.0000 0.0000
70 0.0000 0.0000
71 0.0000 0.0000
72 0.0000 0.0000
73 7.5714 1.3997
74 6.7778 2.2498
75 7.5000 1.4577
76 6.6667 1.2472
77 7.6667 2.1731
78 7.5385 1.4995
79 7.1333 1.9956
80 6.8000 2.2271
81 0.0000 0.0000
82 0.0000 0.0000
83 0.0000 0.0000
84 0.0000 0.0000
85 0.0000 0.0000
86 0.0000 0.0000
87 0.0000 0.0000
88 0.0000 0.0000
89 0.0000 0.0000
90 0.0000 0.0000
91 0.0000 0.0000
92 0.0000 0.0000
93 0.0000 0.0000
94 0.0000 0.0000
95 0.0000 0.0000
96 0.0000 0.0000
97 7.5833 2.2898
98 7.6667 2.2998
99 7.7333 2.2647
100 6.8889 2.1315
101 7.9167 2.5967
102 6.4615 1.6462
103 5.9000 1.4457
104 8.1429 1.8461
105 0.0000 0.0000
106 0.0000 0.0000
107 0.0000 0.0000
108 0.0000 0.0000
109 0.0000 0.0000
110 0.0000 0.0000
111 0.0000 0.0000
112 0.0000 0.0000
113 0.0000 0.0000
114 0.0000 0.0000
115 0.0000 0.0000
116 0.0000 0.0000
117 0.0000 0.0000
118 0.0000 0.0000
119 0.0000 0.0000
120 0.0000 0.0000
121 6.4167 1.4977
122 6.1111 0.8749
123 7.7692 1.9277
124 6.1818 1.2662
125 7.0000 1.0801
126 7.3889 1.6377
127 7.0909 1.9751
128 7.6667 2.3214
129 0.0000 0.0000
130 0.0000 0.0000
131 0.0000 0.0000
132 0.0000 0.0000
133 0.0000 0.0000
134 0.0000 0.0000
135 0.0000 0.0000
136 0.0000 0.0000
137 0.0000 0.0000
138 0.0000 0.0000
139 0.0000 0.0000
140 0.0000 0.0000
141 0.0000 0.0000
142 0.0000 0.0000
143 0.0000 0.0000
144 0.0000 0.0000
145 6.8000 2.0396
146 6.3000 1.5524
147 6.0000 1.3416
148 6.3333 1.1547
149 7.2727 1.7628
150 6.3846 1.1461
151 6.6875 1.0440
152 7.4667 2.0934
153 0.0000 0.0000
154 0.0000 0.0000
155 0.0000 0.0000
156 0.0000 0.0000
157 0.0000 0.0000
158 0.0000 0.0000
159 0.0000 0.0000
160 0.0000 0.0000
161 0.0000 0.0000
162 0.0000 0.0000
163 0.0000 0.0000
164 0.0000 0.0000
165 0.0000 0.0000
166 0.0000 0.0000
167 0.0000 0.0000
168 0.0000 0.0000
169 7.0909 1.7814
170 6.6154 1.1461
171 6.7273 2.2600
172 7.6667 1.8135
173 6.7273 1.7104
174 7.5455 2.8079
175 6.0000 1.5635
176 6.5000 1.1902
177 0.0000 0.0000
178 0.0000 0.0000
179 0.0000 0.0000
180 0.0000 0.0000
181 0.0000 0.0000
182 0.0000 0.0000
183 0.0000 0.0000
184 0.0000 0.0000
185 0.0000 0.0000
186 0.0000 0.0000
187 0.0000 0.0000
188 0.0000 0.0000
189 0.0000 0.0000
190 0.0000 0.0000
191 0.0000 0.0000
192 0.0000 0.0000
193 6.2222 1.2273
194 6.3750 1.4948
195 8.3158 2.1288
196 8.2000 1.9391
197 7.1538 1.8333
198 8.0000 2.3664
199 5.7778 1.0304
200 7.7500 1.5877
201 0.0000 0.0000
202 0.0000 0.0000
203 0.0000 0.0000
204 0.0000 0.0000
205 0.0000 0.0000
206 0.0000 0.0000
207 0.0000 0.0000
208 0.0000 0.0000
209 0.0000 0.0000
210 0.0000 0.0000
211 0.0000 0.0000
212 0.0000 0.0000
213 0.0000 0.0000
214 0.0000 0.0000
215 0.0000 0.0000
216 0.0000 0.0000
217 8.0000 1.9149
218 6.9000 2.2113
219 7.2500 1.6771
220 6.3636 1.3667
221 7.3636 2.7724
222 7.4667 1.7075
223 8.0588 1.8934
224 7.2500 2.3496
225 0.0000 0.0000
226 0.0000 0.0000
227 0.0000 0.0000
228 0.0000 0.0000
229 0.0000 0.0000
230 0.0000 0.0000
231 0.0000 0.0000
232 0.0000 0.0000
233 0.0000 0.0000
234 0.0000 0.0000
235 0.0000 0.0000
236 0.0000 0.0000
237 0.0000 0.0000
238 0.0000 0.0000
239 0.0000 0.0000
240 0.0000 0.0000
241 6.2222 1.8122
242 5.7500 1.3919
243 5.9091 1.4431
244 7.2222 1.6178
245 6.3750 1.8666
246 7.6667 2.2111
247 6.8000 1.2220
248 6.1250 1.9645
249 0.0000 0.0000
250 0.0000 0.0000
251 0.0000 0.0000
252 0.0000 0.0000
253 0.0000 0.0000
254 0.0000 0.0000
255 0.0000 0.0000
256 0.0000 0.0000
257 0.0000 0.0000
258 0.0000 0.0000
259 0.0000 0.0000
260 0.0000 0.0000
261 0.0000 0.0000
262 0.0000 0.0000
263 0.0000 0.0000
264 0.0000 0.0000
265 6.9167 1.5523
266 6.4545 1.8273
267 5.7000 1.3454
268 6.4000 1.7436
269 7.3846 1.8203
270 6.2727 1.2856
271 7.7143 2.6303
272 6.7000 1.4866
273 0.0000 0.0000
274 0.0000 0.0000
275 0.0000 0.0000
276 0.0000 0.0000
277 0.0000 0.0000
278 0.0000 0.0000
279 0.0000 0.0000
280 0.0000 0.0000
281 0.0000 0.0000
282 0.0000 0.0000
283 0.0000 0.0000
284 0.0000 0.0000
285 0.0000 0.0000
286 0.0000 0.0000
287 0.0000 0.0000
288 0.0000 0.0000
289 6.8462 1.1666
290 8.3333 1.7764
291 7.0667 0.7717
292 6.0000 1.0445
293 6.2500 2.0463
294 6.3000 1.3454
295 8.5294 2.4039
296 7.5556 2.8717
297 0.0000 0.0000
298 0.0000 0.0000
299 0.0000 0.0000
300 0.0000 0.0000
301 0.0000 0.0000
302 0.0000 0.0000
303 0.0000 0.0000
304 0.0000 0.0000
305 0.0000 0.0000
306 0.0000 0.0000
307 0.0000 0.0000
308 0.0000 0.0000
309 0.0000 0.0000
310 0.0000 0.0000
311 0.0000 0.0000
312 0.0000 0.0000
313 7.1667 1.9508
314 7.1429 1.5972
315 6.2727 1.2129
316 6.3846 1.0030
317 8.2000 2.8095
318 7.1429 1.5972
319 8.1765 1.6533
320 7.3846 2.5881
321 0.0000 0.0000
322 0.0000 0.0000
323 0.0000 0.0000
324 0.0000 0.0000
325 0.0000 0.0000
326 0.0000 0.0000
327 0.0000 0.0000
328 0.0000 0.0000
329 0.0000 0.0000
330 0.0000 0.0000
331 0.0000 0.0000
332 0.0000 0.0000
333 0.0000 0.0000
334 0.0000 0.0000
335 0.0000 0.0000
336 0.0000 0.0000
337 7.9167 2.7525
338 7.2667 1.6918
339 7.0000 1.2910
340 6.8889 1.7285
341 7.0714 2.3441
342 6.9000 2.3431
343 6.4545 1.5588
344 6.3636 0.9791
345 0.0000 0.0000
346 0.0000 0.0000
347 0.0000 0.0000
348 0.0000 0.0000
349 0.0000 0.0000
350 0.0000 0.0000
351 0.0000 0.0000
352 0.0000 0.0000
353 0.0000 0.0000
354 0.0000 0.0000
355 0.0000 0.0000
356 0.0000 0.0000
357 0.0000 0.0000
358 0.0000 0.0000
359 0.0000 0.0000
360 0.0000 0.0000
361 7.3333 1.6997
362 6.3333 1.6997
363 6.0000 1.3333
364 6.9000 1.4457
365 6.3636 0.8814
366 6.4167 1.4977
367 6.6364 1.1499
368 7.0000 1.8619
369 0.0000 0.0000
370 0.0000 0.0000
371 0.0000 0.0000
372 0.0000 0.0000
373 0.0000 0.0000
374 0.0000 0.0000
375 0.0000 0.0000
376 0.0000 0.0000
377 0.0000 0.0000
378 0.0000 0.0000
379 0.0000 0.0000
380 0.0000 0.0000
381 0.0000 0.0000
382 0.0000 0.0000
383 0.0000 0.0000
384 0.0000 0.0000
385 6.6364 1.5535
386 7.6667 2.2111
387 7.4000 1.8903
388 7.0000 1.7541
389 6.1000 1.3748
390 7.0000 2.7928
391 7.9231 1.9792
392 5.8889 1.3699
393 0.0000 0.0000
394 0.0000 0.0000
395 0.0000 0.0000
396 0.0000 0.0000
397 0.0000 0.0000
398 0.0000 0.0000
399 0.0000 0.0000
400 0.0000 0.0000
401 0.0000 0.0000
402 0.0000 0.0000
403 0.0000 0.0000
404 0.0000 0.0000
405 0.0000 0.0000
406 0.0000 0.0000
407 0.0000 0.0000
408 0.0000 0.0000
409 8.0000 1.8257
410 7.3571 1.6736
411 7.7500 2.1262
412 6.2500 2.1065
413 6.2727 0.9621
414 6.5714 0.9794
415 7.4286 1.6351
416 7.0769 1.8999
417 0.0000 0.0000
418 0.0000 0.0000
419 0.0000 0.0000
420 0.0000 0.0000
421 0.0000 0.0000
422 0.0000 0.0000
423 0.0000 0.0000
424 0.0000 0.0000
425 0.0000 0.0000
426 0.0000 0.0000
427 0.0000 0.0000
428 0.0000 0.0000
429 0.0000 0.0000
430 0.0000 0.0000
431 0.0000 0.0000
432 0.0000 0.0000
433 6.2727 1.9582
434 7.6364 2.7060
435 6.8182 1.9455
436 7.4286 1.7613
437 8.3333 1.9889
438 7.5455 2.4996
439 5.9000 1.1358
440 8.0625 2.9889
441 0.0000 0.0000
442 0.0000 0.0000
443 0.0000 0.0000
444 0.0000 0.0000
445 0.0000 0.0000
446 0.0000 0.0000
447 0.0000 0.0000
448 0.0000 0.0000
449 0.0000 0.0000
450 0.0000 0.0000
451 0.0000 0.0000
452 0.0000 0.0000
453 0.0000 0.0000
454 0.0000 0.0000
455 0.0000 0.0000
456 0.0000 0.0000
457 6.9333 1.5261
458 7.5000 1.6583
459 8.1538 2.2819
460 6.4167 1.3202
461 6.5000 1.7464
462 7.0000 1.9097
463 7.0000 1.5275
464 7.0833 2.0599
465 0.0000 0.0000
466 0.0000 0.0000
467 0.0000 0.0000
468 0.0000 0.0000
469 0.0000 0.0000
470 0.0000 0.0000
471 0.0000 0.0000
472 0.0000 0.0000
473 0.0000 0.0000
474 0.0000 0.0000
475 0.0000 0.0000
476 0.0000 0.0000
477 0.0000 0.0000
478 0.0000 0.0000
479 0.0000 0.0000
480 0.0000 0.0000
481 7.5714 1.7613
482 6.4545 1.9242
483 6.6667 1.6997
484 6.9000 2.3000
485 7.0909 1.6763
486 7.1765 1.1998
487 6.5000 1.9365
488 6.8333 1.5184
489 0.0000 0.0000
490 0.0000 0.0000
491 0.0000 0.0000
492 0.0000 0.0000
493 0.0000 0.0000
494 0.0000 0.0000
495 0.0000 0.0000
496 0.0000 0.0000
497 0.0000 0.0000
498 0.0000 0.0000
499 0.0000 0.0000
500 0.0000 0.0000
501 0.0000 0.0000
502 0.0000 0.0000
503 0.0000 0.0000
504 0.0000 0.0000
505 6.7143 1.2206
506 7.4000 2.6533
507 6.3077 0.9911
508 7.0000 1.4142
509 7.4167 1.8465
510 7.0000 1.5811
511 7.6667 2.6247
512 7.1818 1.7487
513 0.0000 0.0000
514 0.0000 0.0000
515 0.0000 0.0000
516 0.0000 0.0000
517 0.0000 0.0000
518 0.0000 0.0000
519 0.0000 0.0000
520 0.0000 0.0000
521 0.0000 0.0000
522 0.0000 0.0000
523 0.0000 0.0000
524 0.0000 0.0000
525 0.0000 0.0000
526 0.0000 0.0000
527 0.0000 0.0000
528 0.0000 0.0000
529 6.6250 2.4463
530 6.6667 2.0548
531 7.0000 1.6833
532 7.3750 1.1110
533 7.7778 1.6518
534 7.3000 1.9000
535 6.4615 1.2779
536 6.5556 2.4088
537 0.0000 0.0000
538 0.0000 0.0000
539 0.0000 0.0000
540 0.0000 0.0000
541 0.0000 0.0000
542 0.0000 0.0000
543 0.0000 0.0000
544 0.0000 0.0000
545 0.0000 0.0000
546 0.0000 0.0000
547 0.0000 0.0000
548 0.0000 0.0000
549 0.0000 0.0000
550 0.0000 0.0000
551 0.0000 0.0000
552 0.0000 0.0000
553 7.4667 1.9276
554 7.2143 1.6115
555 7.2143 1.7394
556 9.0000 2.8048
557 7.0000 2.1602
558 7.1818 1.6414
559 7.3846 1.5461
560 7.4706 1.4191
561 0.0000 0.0000
562 0.0000 0.0000
563 0.0000 0.0000
564 0.0000 0.0000
565 0.0000 0.0000
566 0.0000 0.0000
567 0.0000 0.0000
568 0.0000 0.0000
569 0.0000 0.0000
570 0.0000 0.0000
571 0.0000 0.0000
572 0.0000 0.0000
573 0.0000 0.0000
574 0.0000 0.0000
575 0.0000 0.0000
576 0.0000 0.0000
577 7.2857 2.0152
578 7.3571 1.9126
579 7.9375 2.7493
580 6.6923 1.2640
581 7.0000 1.1055
582 6.5000 1.1802
583 7.4667 2.0934
584 7.2143 1.4725
585 0.0000 0.0000
586 0.0000 0.0000
587 0.0000 0.0000
588 0.0000 0.0000
589 0.0000 0.0000
590 0.0000 0.0000
591 0.0000 0.0000
592 0.0000 0.0000
593 0.0000 0.0000
594 0.0000 0.0000
595 0.0000 0.0000
596 0.0000 0.0000
597 0.0000 0.0000
598 0.0000 0.0000
599 0.0000 0.0000
600 0.0000 0.0000
601 6.4545 1.4374
602 6.1818 1.8982
603 7.0000 2.1320
604 7.1000 2.1656
605 7.6667 2.0778
606 7.3571 1.3942
607 6.9091 1.9285
608 6.3000 1.6155
609 0.0000 0.0000
610 0.0000 0.0000
611 0.0000 0.0000
612 0.0000 0.0000
613 0.0000 0.0000
614 0.0000 0.0000
615 0.0000 0.0000
616 0.0000 0.0000
617 0.0000 0.0000
618 0.0000 0.0000
619 0.0000 0.0000
620 0.0000 0.0000
621 0.0000 0.0000
622 0.0000 0.0000
623 0.0000 0.0000
624 0.0000 0.0000
625 6.6000 1.0198
626 6.4000 1.8000
627 6.5556 1.1653
628 6.5000 1.6279
629 5.4444 0.6849
630 6.9412 1.3491
631 5.6250 1.4087
632 6.6250 2.4463
633 0.0000 0.0000
634 0.0000 0.0000
635 0.0000 0.0000
636 0.0000 0.0000
637 0.0000 0.0000
638 0.0000 0.0000
639 0.0000 0.0000
640 0.0000 0.0000
641 0.0000 0.0000
642 0.0000 0.0000
643 0.0000 0.0000
644 0.0000 0.0000
645 0.0000 0.0000
646 0.0000 0.0000
647 0.0000 0.0000
648 0.0000 0.0000
649 7.2000 1.8868
650 7.6429 1.7971
651 6.7778 2.6574
652 7.6154 1.7338
653 6.7692 1.4756
654 6.8182 1.5266
655 7.1429 1.5972
656 7.0714 1.1628
657 0.0000 0.0000
658 0.0000 0.0000
659 0.0000 0.0000
660 0.0000 0.0000
661 0.0000 0.0000
662 0.0000 0.0000
663 0.0000 0.0000
664 0.0000 0.0000
665 0.0000 0.0000
666 0.0000 0.0000
667 0.0000 0.0000
668 0.0000 0.0000
669 0.0000 0.0000
670 0.0000 0.0000
671 0.0000 0.0000
672 0.0000 0.0000
673 6.8000 1.9900
674 6.9231 1.7742
675 6.9286 1.0996
676 6.5385 1.5500
677 7.7222 1.6602
678 7.6667 1.6193
679 5.6667 1.0541
680 7.7143 1.1606
681 0.0000 0.0000
682 0.0000 0.0000
683 0.0000 0.0000
684 0.0000 0.0000
685 0.0000 0.0000
686 0.0000 0.0000
687 0.0000 0.0000
688 0.0000 0.0000
689 0.0000 0.0000
690 0.0000 0.0000
691 0.0000 0.0000
692 0.0000 0.0000
693 0.0000 0.0000
694 0.0000 0.0000
695 0.0000 0.0000
696 0.0000 0.0000
697 6.4545 1.8273
698 6.6000 1.3064
699 6.6667 1.8257
700 6.6667 1.6997
701 7.0000 2.0000
702 7.1538 1.4595
703 7.3333 1.9551
704 6.4286 2.3212
705 0.0000 0.0000
706 0.0000 0.0000
707 0.0000 0.0000
708 0.0000 0.0000
709 0.0000 0.0000
710 0.0000 0.0000
711 0.0000 0.0000
712 0.0000 0.0000
713 0.0000 0.0000
714 0.0000 0.0000
715 0.0000 0.0000
716 0.0000 0.0000
717 0.0000 0.0000
718 0.0000 0.0000
719 0.0000 0.0000
720 0.0000 0.0000
721 6.5556 1.3426
722 6.5000 1.2845
723 7.3571 1.6304
724 6.6667 3.1623
725 7.2143 2.1771
726 8.0769 2.4639
727 7.4615 1.6923
728 6.1818 1.1923
729 0.0000 0.0000
730 0.0000 0.0000
731 0.0000 0.0000
732 0.0000 0.0000
733 0.0000 0.0000
734 0.0000 0.0000
735 0.0000 0.0000
736 0.0000 0.0000
737 0.0000 0.0000
738 0.0000 0.0000
739 0.0000 0.0000
740 0.0000 0.0000
741 0.0000 0.0000
742 0.0000 0.0000
743 0.0000 0.0000
744 0.0000 0.0000
745 7.5000 1.3229
746 6.5000 2.1095
747 6.4000 0.8000
748 7.2308 2.6063
749 6.6923 1.4350
750 8.0000 2.1381
751 6.5000 1.7078
752 6.9231 1.0714
753 0.0000 0.0000
754 0.0000 0.0000
755 0.0000 0.0000
756 0.0000 0.0000
757 0.0000 0.0000
758 0.0000 0.0000
759 0.0000 0.0000
760 0.0000 0.0000
761 0.0000 0.0000
762 0.0000 0.0000
763 0.0000 0.0000
764 0.0000 0.0000
765 0.0000 0.0000
766 0.0000 0.0000
767 0.0000 0.0000
768 0.0000 0.0000
769 8.2353 2.6685
770 7.0000 1.4552
771 7.0000 1.7795
772 7.6875 2.2282
773 6.6364 1.2264
774 7.6316 1.0863
775 7.1176 1.2311
776 6.8462 1.8748
777 0.0000 0.0000
778 0.0000 0.0000
779 0.0000 0.0000
780 0.0000 0.0000
781 0.0000 0.0000
782 0.0000 0.0000
783 0.0000 0.0000
784 0.0000 0.0000
785 0.0000 0.0000
786 0.0000 0.0000
787 0.0000 0.0000
788 0.0000 0.0000
789 0.0000 0.0000
790 0.0000 0.0000
791 0.0000 0.0000
792 0.0000 0.0000
793 6.7500 1.3617
794 7.2105 1.4718
795 6.9167 1.8008
796 6.7143 1.0302
797 6.6364 1.4938
798 6.5556 2.0608
799 7.3571 2.2235
800 7.3846 1.5461
801 0.0000 0.0000
802 0.0000 0.0000
803 0.0000 0.0000
804 0.0000 0.0000
805 0.0000 0.0000
806 0.0000 0.0000
807 0.0000 0.0000
808 0.0000 0.0000
809 0.0000 0.0000
810 0.0000 0.0000
811 0.0000 0.0000
812 0.0000 0.0000
813 0.0000 0.0000
814 0.0000 0.0000
815 0.0000 0.0000
816 0.0000 0.0000
817 6.0000 1.7638
818 6.8750 0.9922
819 7.0000 1.0607
820 7.0000 1.5811
821 6.0000 1.9272
822 6.6154 1.0030
823 7.8824 2.6095
824 8.4762 2.8556
825 0.0000 0.0000
826 0.0000 0.0000
827 0.0000 0.0000
828 0.0000 0.0000
829 0.0000 0.0000
830 0.0000 0.0000
831 0.0000 0.0000
832 0.0000 0.0000
833 0.0000 0.0000
834 0.0000 0.0000
835 0.0000 0.0000
836 0.0000 0.0000
837 0.0000 0.0000
838 0.0000 0.0000
839 0.0000 0.0000
840 0.0000 0.0000
841 7.1667 1.3844
842 6.1111 1.0999
843 6.4444 1.6405
844 7.6154 2.2027
845 6.0000 0.8944
846 6.3333 1.8257
847 7.5556 1.3005
848 6.6667 1.2472
849 0.0000 0.0000
850 0.0000 0.0000
851 0.0000 0.0000
852 0.0000 0.0000
853 0.0000 0.0000
854 0.0000 0.0000
855 0.0000 0.0000
856 0.0000 0.0000
857 0.0000 0.0000
858 0.0000 0.0000
859 0.0000 0.0000
860 0.0000 0.0000
861 0.0000 0.0000
862 0.0000 0.0000
863 0.0000 0.0000
864 0.0000 0.0000
865 7.1333 1.4079
866 7.2667 1.1235
867 6.9286 2.1535
868 6.6364 2.0124
869 7.0000 1.9272
870 7.3750 1.2183
871 6.5000 2.2361
872 7.5000 1.7627
873 0.0000 0.0000
874 0.0000 0.0000
875 0.0000 0.0000
876 0.0000 0.0000
877 0.0000 0.0000
878 0.0000 0.0000
879 0.0000 0.0000
880 0.0000 0.0000
881 0.0000 0.0000
882 0.0000 0.0000
883 0.0000 0.0000
884 0.0000 0.0000
885 0.0000 0.0000
886 0.0000 0.0000
887 0.0000 0.0000
888 0.0000 0.0000
889 6.9231 1.2686
890 6.5833 1.1873
891 7.0000 1.7321
892 6.4444 1.6405
893 7.2500 1.7381
894 7.5000 1.6366
895 7.2000 1.4697
896 6.6667 2.0000
897 0.0000 0.0000
898 0.0000 0.0000
899 0.0000 0.0000
900 0.0000 0.0000
901 0.0000 0.0000
902 0.0000 0.0000
903 0.0000 0.0000
904 0.0000 0.0000
905 0.0000 0.0000
906 0.0000 0.0000
907 0.0000 0.0000
908 0.0000 0.0000
909 0.0000 0.0000
910 0.0000 0.0000
911 0.0000 0.0000
912 0.0000 0.0000
913 7.2000 2.4000
914 7.5000 2.2079
915 6.8750 1.3170
916 6.8000 1.9900
917 7.1429 1.5051
918 6.4167 1.5523
919 6.8235 1.2941
920 6.2500 1.0104
921 0.0000 0.0000
922 0.0000 0.0000
923 0.0000 0.0000
924 0.0000 0.0000
925 0.0000 0.0000
926 0.0000 0.0000
927 0.0000 0.0000
928 0.0000 0.0000
929 0.0000 0.0000
930 0.0000 0.0000
931 0.0000 0.0000
932 0.0000 0.0000
933 0.0000 0.0000
934 0.0000 0.0000
935 0.0000 0.0000
936 0.0000 0.0000
937 6.2500 0.5951
938 8.3684 2.6598
939 6.8125 1.4238
940 6.7000 2.1471
941 6.5000 1.6882
942 7.1818 2.1242
943 6.3077 1.3803
944 7.1429 1.8844
945 0.0000 0.0000
946 0.0000 0.0000
947 0.0000 0.0000
948 0.0000 0.0000
949 0.0000 0.0000
950 0.0000 0.0000
951 0.0000 0.0000
952 0.0000 0.0000
953 0.0000 0.0000
954 0.0000 0.0000
955 0.0000 0.0000
956 0.0000 0.0000
957 0.0000 0.0000
958 0.0000 0.0000
959 0.0000 0.0000
960 0.0000 0.0000
961 7.9333 2.0483
962 6.6667 1.1785
963 6.4545 1.7249
964 6.9091 1.7297
965 7.0000 1.7795
966 6.2222 1.8725
967 6.1000 1.2207
968 6.7143 1.0973
969 0.0000 0.0000
970 0.0000 0.0000
971 0.0000 0.0000
972 0.0000 0.0000
973 0.0000 0.0000
974 0.0000 0.0000
975 0.0000 0.0000
976 0.0000 0.0000
977 0.0000 0.0000
978 0.0000 0.0000
979 0.0000 0.0000
980 0.0000 0.0000
981 0.0000 0.0000
982 0.0000 0.0000
983 0.0000 0.0000
984 0.0000 0.0000
985 7.1111 1.6292
986 6.2308 0.9730
987 6.8182 1.1134
988 7.5000 1.8803
989 7.4118 1.4974
990 6.8125 0.8077
991 6.9167 1.7058
992 7.2500 1.5877
993 0.0000 0.0000
994 0.0000 0.0000
995 0.0000 0.0000
996 0.0000 0.0000
997 0.0000 0.0000
998 0.0000 0.0000
999 0.0000 0.0000
1000 0.0000 0.0000
1001 0.0000 0.0000
1002 0.0000 0.0000
1003 0.0000 0.0000
1004 0.0000 0.0000
1005 0.0000 0.0000
1006 0.0000 0.0000
1007 0.0000 0.0000
1008 0.0000 0.0000
1009 6.5000 2.4495
1010 7.4545 3.0261
1011 6.0909 1.7297
1012 7.1111 1.4487
1013 6.3333 1.5456
1014 6.5455 1.7249
1015 6.8667 1.7839
1016 6.9333 1.2365
1017 0.0000 0.0000
1018 0.0000 0.0000
1019 0.0000 0.0000
1020 0.0000 0.0000
1021 0.0000 0.0000
1022 0.0000 0.0000
1023 0.0000 0.0000
1024 0.0000 0.0000
1025 0.0000 0.0000
1026 0.0000 0.0000
1027 0.0000 0.0000
1028 0.0000 0.0000
1029 0.0000 0.0000
1030 0.0000 0.0000
1031 0.0000 0.0000
1032 0.0000 0.0000
1033 7.5000 1.6797
1034 7.2000 0.9798
1035 7.3000 2.6476
1036 7.5714 1.6782
1037 7.0667 1.9821
1038 7.9000 2.2113
1039 7.0000 2.0889
1040 6.4545 1.3727
1041 0.0000 0.0000
1042 0.0000 0.0000
1043 0.0000 0.0000
1044 0.0000 0.0000
1045 0.0000 0.0000
1046 0.0000 0.0000
1047 0.0000 0.0000
1048 0.0000 0.0000
1049 0.0000 0.0000
1050 0.0000 0.0000
1051 0.0000 0.0000
1052 0.0000 0.0000
1053 0.0000 0.0000
1054 0.0000 0.0000
1055 0.0000 0.0000
1056 0.0000 0.0000
1057 8.4211 2.1353
1058 7.0833 1.9347
1059 6.7273 1.4827
1060 7.5000 3.2939
1061 7.6429 2.2554
1062 5.3750 1.5762
1063 6.5000 1.1180
1064 7.1818 1.3361
1065 0.0000 0.0000
1066 0.0000 0.0000
1067 0.0000 0.0000
1068 0.0000 0.0000
1069 0.0000 0.0000
1070 0.0000 0.0000
1071 0.0000 0.0000
1072 0.0000 0.0000
1073 0.0000 0.0000
1074 0.0000 0.0000
1075 0.0000 0.0000
1076 0.0000 0.0000
1077 0.0000 0.0000
1078 0.0000 0.0000
1079 0.0000 0.0000
1080 0.0000 0.0000
1081 7.3125 1.4456
1082 7.6250 1.6536
1083 7.2500 1.6771
1084 7.5000 1.5000
1085 7.1667 1.9508
1086 6.7273 2.1359
1087 7.0000 3.6056
1088 7.7143 1.9060
1089 0.0000 0.0000
1090 0.0000 0.0000
1091 0.0000 0.0000
1092 0.0000 0.0000
1093 0.0000 0.0000
1094 0.0000 0.0000
1095 0.0000 0.0000
1096 0.0000 0.0000
1097 0.0000 0.0000
1098 0.0000 0.0000
1099 0.0000 0.0000
1100 0.0000 0.0000
1101 0.0000 0.0000
1102 0.0000 0.0000
1103 0.0000 0.0000
1104 0.0000 0.0000
1105 7.0000 2.0449
1106 6.6875 1.1575
1107 6.8571 0.9897
1108 6.7500 1.7139
1109 6.6364 1.3667
1110 7.5455 2.6411
1111 6.7143 1.0302
1112 6.7692 1.8040
1113 0.0000 0.0000
1114 0.0000 0.0000
1115 0.0000 0.0000
1116 0.0000 0.0000
1117 0.0000 0.0000
1118 0.0000 0.0000
1119 0.0000 0.0000
1120 0.0000 0.0000
1121 0.0000 0.0000
1122 0.0000 0.0000
1123 0.0000 0.0000
1124 0.0000 0.0000
1125 0.0000 0.0000
1126 0.0000 0.0000
1127 0.0000 0.0000
1128 0.0000 0.0000
1129 7.5714 1.8014
1130 6.9231 1.4391
1131 7.6875 1.7930
1132 5.5000 1.2042
1133 6.5000 1.2845
1134 6.7333 1.0625
1135 6.3636 1.5535
1136 7.0833 1.9347
1137 0.0000 0.0000
1138 0.0000 0.0000
1139 0.0000 0.0000
1140 0.0000 0.0000
1141 0.0000 0.0000
1142 0.0000 0.0000
1143 0.0000 0.0000
1144 0.0000 0.0000
1145 0.0000 0.0000
1146 0.0000 0.0000
1147 0.0000 0.0000
1148 0.0000 0.0000
1149 0.0000 0.0000
1150 0.0000 0.0000
1151 0.0000 0.0000
1152 0.0000 0.0000
1153 6.4545 1.6160
1154 6.7500 1.5343
1155 8.7143 3.1719
1156 6.4167 1.7540
1157 7.2941 1.5630
1158 6.6923 1.8557
1159 7.2667 1.4360
1160 7.3333 1.9720
1161 0.0000 0.0000
1162 0.0000 0.0000
1163 0.0000 0.0000
1164 0.0000 0.0000
1165 0.0000 0.0000
1166 0.0000 0.0000
1167 0.0000 0.0000
1168 0.0000 0.0000
1169 0.0000 0.0000
1170 0.0000 0.0000
1171 0.0000 0.0000
1172 0.0000 0.0000
1173 0.0000 0.0000
1174 0.0000 0.0000
1175 0.0000 0.0000
1176 0.0000 0.0000
1177 8.5000 3.1024
1178 8.1429 3.0203
1179 6.9333 1.5261
1180 7.0769 1.4391
1181 6.2000 1.1662
1182 6.7143 1.2778
1183 7.8571 1.9588
1184 6.1818 1.1134
1185 0.0000 0.0000
1186 0.0000 0.0000
1187 0.0000 0.0000
1188 0.0000 0.0000
1189 0.0000 0.0000
1190 0.0000 0.0000
1191 0.0000 0.0000
1192 0.0000 0.0000
1193 0.0000 0.0000
1194 0.0000 0.0000
1195 0.0000 0.0000
1196 0.0000 0.0000
1197 0.0000 0.0000
1198 0.0000 0.0000
1199 0.0000 0.0000
1200 0.0000 0.0000
1201 6.5556 2.1660
1202 6.2727 1.4827
1203 8.7500 3.4187
1204 7.0000 1.7728
1205 8.1667 2.4552
1206 5.4286 1.3997
1207 7.4000 2.2450
1208 7.8000 1.4236
1209 0.0000 0.0000
1210 0.0000 0.0000
1211 0.0000 0.0000
1212 0.0000 0.0000
1213 0.0000 0.0000
1214 0.0000 0.0000
1215 0.0000 0.0000
1216 0.0000 0.0000
1217 0.0000 0.0000
1218 0.0000 0.0000
1219 0.0000 0.0000
1220 0.0000 0.0000
1221 0.0000 0.0000
1222 0.0000 0.0000
1223 0.0000 0.0000
1224 0.0000 0.0000
1225 7.6154 2.0206
1226 8.1250 1.9325
1227 6.4167 1.7540
1228 6.6000 1.4283
1229 7.4000 1.9253
1230 7.3571 1.3420
1231 7.0909 2.0206
1232 7.5385 1.8653
1233 0.0000 0.0000
1234 0.0000 0.0000
1235 0.0000 0.0000
1236 0.0000 0.0000
1237 0.0000 0.0000
1238 0.0000 0.0000
1239 0.0000 0.0000
1240 0.0000 0.0000
1241 0.0000 0.0000
1242 0.0000 0.0000
1243 0.0000 0.0000
1244 0.0000 0.0000
1245 0.0000 0.0000
1246 0.0000 0.0000
1247 0.0000 0.0000
1248 0.0000 0.0000
1249 6.8947 1.8323
1250 7.2308 1.5765
1251 7.3571 1.7569
1252 7.9231 2.9990
1253 7.9474 1.9594
1254 6.4167 1.6051
1255 6.5556 1.4990
1256 7.0000 1.7097
1257 0.0000 0.0000
1258 0.0000 0.0000
1259 0.0000 0.0000
1260 0.0000 0.0000
1261 0.0000 0.0000
1262 0.0000 0.0000
1263 0.0000 0.0000
1264 0.0000 0.0000
1265 0.0000 0.0000
1266 0.0000 0.0000
1267 0.0000 0.0000
1268 0.0000 0.0000
1269 0.0000 0.0000
1270 0.0000 0.0000
1271 0.0000 0.0000
1272 0.0000 0.0000
1273 6.8182 1.8497
1274 6.5385 1.5500
1275 8.2308 2.4855
1276 6.6154 1.5461
1277 7.0000 2.0000
1278 8.0000 2.1420
1279 7.0833 2.0999
1280 6.5000 1.4434
1281 0.0000 0.0000
1282 0.0000 0.0000
1283 0.0000 0.0000
1284 0.0000 0.0000
1285 0.0000 0.0000
1286 0.0000 0.0000
1287 0.0000 0.0000
1288 0.0000 0.0000
1289 0.0000 0.0000
1290 0.0000 0.0000
1291 0.0000 0.0000
1292 0.0000 0.0000
1293 0.0000 0.0000
1294 0.0000 0.0000
1295 0.0000 0.0000
1296 0.0000 0.0000
1297 6.5833 1.7058
1298 6.6000 2.0591
1299 7.7000 1.4177
1300 6.3636 1.2984
1301 6.3077 1.7269
1302 8.9231 3.1976
1303 6.5833 1.1873
1304 7.2500 1.8314
1305 0.0000 0.0000
1306 0.0000 0.0000
1307 0.0000 0.0000
1308 0.0000 0.0000
1309 0.0000 0.0000
1310 0.0000 0.0000
1311 0.0000 0.0000
1312 0.0000 0.0000
1313 0.0000 0.0000
1314 0.0000 0.0000
1315 0.0000 0.0000
1316 0.0000 0.0000
1317 0.0000 0.0000
1318 0.0000 0.0000
1319 0.0000 0.0000
1320 0.0000 0.0000
1321 6.8333 1.3437
1322 6.1818 1.1134
1323 6.7692 1.3100
1324 6.4444 1.4990
1325 7.2727 1.4200
1326 6.5000 1.9621
1327 6.8000 1.8868
1328 6.1111 2.1830
1329 0.0000 0.0000
1330 0.0000 0.0000
1331 0.0000 0.0000
1332 0.0000 0.0000
1333 0.0000 0.0000
1334 0.0000 0.0000
1335 0.0000 0.0000
1336 0.0000 0.0000
1337 0.0000 0.0000
1338 0.0000 0.0000
1339 0.0000 0.0000
1340 0.0000 0.0000
1341 0.0000 0.0000
1342 0.0000 0.0000
1343 0.0000 0.0000
1344 0.0000 0.0000
1345 7.9286 2.5764
1346 8.8750 2.7585
1347 6.5455 1.3727
1348 7.4118 1.9421
1349 7.4000 2.7276
1350 7.4000 2.3324
1351 7.0714 1.9073
1352 5.5556 1.1653
1353 0.0000 0.0000
1354 0.0000 0.0000
1355 0.0000 0.0000
1356 0.0000 0.0000
1357 0.0000 0.0000
1358 0.0000 0.0000
1359 0.0000 0.0000
1360 0.0000 0.0000
1361 0.0000 0.0000
1362 0.0000 0.0000
1363 0.0000 0.0000
1364 0.0000 0.0000
1365 0.0000 0.0000
1366 0.0000 0.0000
1367 0.0000 0.0000
1368 0.0000 0.0000
1369 7.0000 1.6833
1370 7.0714 1.7511
1371 7.5714 1.8790
1372 7.6667 1.9551
1373 7.1818 2.4052
1374 7.1818 1.4659
1375 6.6667 1.3744
1376 6.5455 1.2332
1377 0.0000 0.0000
1378 0.0000 0.0000
1379 0.0000 0.0000
1380 0.0000 0.0000
1381 0.0000 0.0000
1382 0.0000 0.0000
1383 0.0000 0.0000
1384 0.0000 0.0000
1385 0.0000 0.0000
1386 0.0000 0.0000
1387 0.0000 0.0000
1388 0.0000 0.0000
1389 0.0000 0.0000
1390 0.0000 0.0000
1391 0.0000 0.0000
1392 0.0000 0.0000
1393 7.2143 1.9704
1394 7.0588 1.2113
1395 6.5385 1.2163
1396 6.8462 1.7474
1397 7.1538 1.4595
1398 6.8000 1.4000
1399 7.6154 1.8203
1400 6.4615 1.0088
1401 0.0000 0.0000
1402 0.0000 0.0000
1403 0.0000 0.0000
1404 0.0000 0.0000
1405 0.0000 0.0000
1406 0.0000 0.0000
1407 0.0000 0.0000
1408 0.0000 0.0000
1409 0.0000 0.0000
1410 0.0000 0.0000
1411 0.0000 0.0000
1412 0.0000 0.0000
1413 0.0000 0.0000
1414 0.0000 0.0000
1415 0.0000 0.0000
1416 0.0000 0.0000
1417 8.0556 1.8096
1418 6.8333 1.2802
1419 6.6000 1.5620
1420 6.7273 1.7104
1421 6.4167 1.4410
1422 7.7333 1.7689
1423 7.1429 1.3197
1424 7.0000 2.0412
1425 0.0000 0.0000
1426 0.0000 0.0000
1427 0.0000 0.0000
1428 0.0000 0.0000
1429 0.0000 0.0000
1430 0.0000 0.0000
1431 0.0000 0.0000
1432 0.0000 0.0000
1433 0.0000 0.0000
1434 0.0000 0.0000
1435 0.0000 0.0000
1436 0.0000 0.0000
1437 0.0000 0.0000
1438 0.0000 0.0000
1439 0.0000 0.0000
1440 0.0000 0.0000
1441 6.6000 2.1071
1442 7.7333 2.7195
1443 8.1250 2.5709
1444 6.2727 1.1355
1445 7.3000 1.2288
1446 6.5714 0.9794
1447 7.3571 1.9496
1448 7.5000 1.9039
1449 0.0000 0.0000
1450 0.0000 0.0000
1451 0.0000 0.0000
1452 0.0000 0.0000
1453 0.0000 0.0000
1454 0.0000 0.0000
1455 0.0000 0.0000
1456 0.0000 0.0000
1457 0.0000 0.0000
1458 0.0000 0.0000
1459 0.0000 0.0000
1460 0.0000 0.0000
1461 0.0000 0.0000
1462 0.0000 0.0000
1463 0.0000 0.0000
1464 0.0000 0.0000
1465 6.5714 1.5908
1466 7.2500 1.7139
1467 6.8333 2.0750
1468 6.5714 0.9035
1469 7.0000 2.4495
1470 7.3333 1.7951
1471 7.2000 1.6000
1472 7.3333 2.0950
1473 0.0000 0.0000
1474 0.0000 0.0000
1475 0.0000 0.0000
1476 0.0000 0.0000
1477 0.0000 0.0000
1478 0.0000 0.0000
1479 0.0000 0.0000
1480 0.0000 0.0000
1481 0.0000 0.0000
1482 0.0000 0.0000
1483 0.0000 0.0000
1484 0.0000 0.0000
1485 0.0000 0.0000
1486 0.0000 0.0000
1487 0.0000 0.0000
1488 0.0000 0.0000
1489 6.3333 1.5456
1490 8.3077 2.7000
1491 6.9000 2.1190
1492 5.7778 1.1331
1493 5.9000 1.2207
1494 6.5000 1.8574
1495 8.2857 2.7367
1496 7.5000 2.5843
1497 0.0000 0.0000
1498 0.0000 0.0000
1499 0.0000 0.0000
1500 0.0000 0.0000
1501 0.0000 0.0000
1502 0.0000 0.0000
1503 0.0000 0.0000
1504 0.0000 0.0000
1505 0.0000 0.0000
1506 0.0000 0.0000
1507 0.0000 0.0000
1508 0.0000 0.0000
1509 0.0000 0.0000
1510 0.0000 0.0000
1511 0.0000 0.0000
1512 0.0000 0.0000
1513 6.9231 1.7742
1514 7.8500 1.8514
1515 6.2500 1.2990
1516 6.4545 1.6713
1517 5.5714 1.9166
1518 6.7692 1.0491
1519 6.4444 1.4229
1520 7.3125 1.5297
1521 0.0000 0.0000
1522 0.0000 0.0000
1523 0.0000 0.0000
1524 0.0000 0.0000
1525 0.0000 0.0000
1526 0.0000 0.0000
1527 0.0000 0.0000
1528 0.0000 0.0000
1529 0.0000 0.0000
1530 0.0000 0.0000
1531 0.0000 0.0000
1532 0.0000 0.0000
1533 0.0000 0.0000
1534 0.0000 0.0000
1535 0.0000 0.0000
1536 0.0000 0.0000
1537 7.4286 1.5452
1538 7.2143 1.7394
1539 7.7857 2.0763
1540 7.1579 1.5981
1541 6.7000 1.6155
1542 7.8000 2.1040
1543 6.9231 1.2065
1544 7.5000 2.0266
1545 0.0000 0.0000
1546 0.0000 0.0000
1547 0.0000 0.0000
1548 0.0000 0.0000
1549 0.0000 0.0000
1550 0.0000 0.0000
1551 0.0000 0.0000
1552 0.0000 0.0000
1553 0.0000 0.0000
1554 0.0000 0.0000
1555 0.0000 0.0000
1556 0.0000 0.0000
1557 0.0000 0.0000
1558 0.0000 0.0000
1559 0.0000 0.0000
1560 0.0000 0.0000
1561 6.9231 1.6390
1562 6.8333 1.4044
1563 8.3125 1.9596
1564 7.0000 1.6172
1565 7.2727 1.9113
1566 7.0000 1.1767
1567 7.4375 1.0588
1568 6.2500 0.9242
1569 0.0000 0.0000
1570 0.0000 0.0000
1571 0.0000 0.0000
1572 0.0000 0.0000
1573 0.0000 0.0000
1574 0.0000 0.0000
1575 0.0000 0.0000
1576 0.0000 0.0000
1577 0.0000 0.0000
1578 0.0000 0.0000
1579 0.0000 0.0000
1580 0.0000 0.0000
1581 0.0000 0.0000
1582 0.0000 0.0000
1583 0.0000 0.0000
1584 0.0000 0.0000
1585 6.7692 1.5269
1586 7.3077 1.8557
1587 6.8333 1.2802
1588 6.8000 1.8330
1589 6.7857 1.2059
1590 7.5455 2.1047
1591 7.2308 1.4226
1592 6.2857 0.9583
1593 0.0000 0.0000
1594 0.0000 0.0000
1595 0.0000 0.0000
1596 0.0000 0.0000
1597 0.0000 0.0000
1598 0.0000 0.0000
1599 0.0000 0.0000
1600 0.0000 0.0000
1601 0.0000 0.0000
1602 0.0000 0.0000
1603 0.0000 0.0000
1604 0.0000 0.0000
1605 0.0000 0.0000
1606 0.0000 0.0000
1607 0.0000 0.0000
1608 0.0000 0.0000
1609 8.4348 1.5832
1610 6.1111 1.5235
1611 8.0000 2.1909
1612 6.5000 2.0125
1613 6.8000 1.8868
1614 7.5294 1.6844
1615 9.0667 3.1084
1616 7.2727 2.0929
1617 0.0000 0.0000
1618 0.0000 0.0000
1619 0.0000 0.0000
1620 0.0000 0.0000
1621 0.0000 0.0000
1622 0.0000 0.0000
1623 0.0000 0.0000
1624 0.0000 0.0000
1625 0.0000 0.0000
1626 0.0000 0.0000
1627 0.0000 0.0000
1628 0.0000 0.0000
1629 0.0000 0.0000