ITEM: TIMESTEP
0
ITEM: NUMBER OF ATOMS
4096
ITEM: BOX BOUNDS xy xz yz xx yy zz
0.000000 43.709785 -0.110535
0.000000 43.887265 -0.193920
0.000000 43.688193  0.123582
ITEM: ATOMS id c_arpn c_srpn
1 6.1818 1.0285
2 6.3077 0.7216
3 6.3846 0.8356
4 6.7857 1.1451
5 6.5000 0.8238
6 6.4167 1.0375
7 6.3636 0.9791
8 6.4167 0.9538
9 6.3000 1.2689
10 6.3077 0.8213
11 6.3571 0.7178
12 6.0909 0.7925
13 6.6364 1.1499
14 6.2308 1.1200
15 6.2727 1.2129
16 6.2308 0.6966
17 6.4615 1.0088
18 6.2308 0.9730
19 6.3636 1.0679
20 6.0833 0.6401
21 6.1667 0.8975
22 6.4286 0.9035
23 6.2500 0.7217
24 6.5000 1.1180
25 6.4706 0.6056
26 6.3000 0.7810
27 6.2727 0.9621
28 5.9091 0.6680
29 6.1000 0.8307
30 6.5000 0.7319
31 6.6000 0.7118
32 6.2308 0.9730
33 6.3333 0.9428
34 6.3077 0.8213
35 6.2857 0.6999
36 6.0000 1.0000
37 6.5000 0.8238
38 6.3750 0.5995
39 6.1667 0.7993
40 6.7857 1.0127
41 6.0909 0.9000
42 5.9091 0.7925
43 6.4545 1.3727
44 6.5714 0.9035
45 6.2500 0.9242
46 6.2143 0.5579
47 6.5385 0.8427
48 6.2000 0.8718
49 6.0909 0.9000
50 6.1818 0.7158
51 5.9091 0.2875
52 6.1818 0.8332
53 6.2000 1.3266
54 6.3077 0.6057
55 6.4286 0.4949
56 6.0000 1.4142
57 6.3529 0.6809
58 6.2500 0.7217
59 6.6000 0.8794
60 6.5000 0.8238
61 6.3333 0.6236
62 6.5000 0.5000
63 6.0714 0.4574
64 6.5000 0.9063
65 6.5000 0.9574
66 6.9231 0.9970
67 6.5714 0.7284
68 6.2500 0.8292
69 6.0909 1.0833
70 6.3333 0.8498
71 6.2500 0.7217
72 6.7333 1.2893
73 5.8182 0.7158
74 6.3636 0.9791
75 6.3000 0.9000
76 6.3846 0.6249
77 6.3000 1.1000
78 5.3846 1.1461
79 5.8889 0.8749
80 7.0714 1.3869
81 6.1538 0.6617
82 6.6154 1.1461
83 6.6000 0.6110
84 5.9167 0.6401
85 6.4375 0.6092
86 6.0909 0.9959
87 6.5882 0.4922
88 6.5833 0.7592
89 6.4545 1.0757
90 6.2727 1.0523
91 6.3333 1.3123
92 6.2143 0.5579
93 6.3333 0.6992
94 6.3333 0.6236
95 6.0909 0.9000
96 6.4545 0.8907
97 6.4615 0.9295
98 6.2500 0.8292
99 6.4615 0.8427
100 5.5556 0.6849
101 6.6000 0.9522
102 6.6154 0.7378
103 6.4545 1.0757
104 6.3333 0.5963
105 6.4167 1.1149
106 5.9091 0.7925
107 6.1667 0.6872
108 6.5385 1.0824
109 6.5385 1.0088
110 6.7500 1.0897
111 6.4667 0.7180
112 6.4444 0.4969
113 6.5714 0.7284
114 6.3077 0.7216
115 6.7857 1.0809
116 6.2727 0.8624
117 6.3636 1.0679
118 5.9000 0.5385
119 6.3125 0.5830
120 6.3077 0.4615
121 6.1667 0.5528
122 6.3333 0.9428
123 6.4615 1.0824
124 6.0909 0.7925
125 6.2000 0.9798
126 5.8333 0.3727
127 6.5833 0.7592
128 6.3077 0.7216
129 6.4286 0.9035
130 5.8889 0.7370
131 6.4286 1.0498
132 6.2727 0.8624
133 6.5385 0.8427
134 6.0000 0.8944
135 6.2000 0.8718
136 6.5333 1.2037
137 6.5000 0.9820
138 6.3333 0.8498
139 6.3571 0.8113
140 6.2308 0.6966
141 6.5714 0.9035
142 6.5556 1.6405
143 6.5833 1.1149
144 6.1538 0.7692
145 6.6471 0.4779
146 6.2500 0.9242
147 6.5000 1.1180
148 6.2500 0.5951
149 5.6000 0.6633
150 6.5000 0.5000
151 6.6923 0.9102
152 6.0000 0.7385
153 6.6923 0.9102
154 6.2500 1.0897
155 6.1818 1.0285
156 6.3846 1.2114
157 6.0833 0.6401
158 5.7500 0.8292
159 6.2000 0.8718
160 6.2857 0.6999
161 6.2500 1.0104
162 5.9000 0.5385
163 6.5000 0.6455
164 6.1000 0.5385
165 6.4615 1.2779
166 6.2727 0.8624
167 5.9000 0.8307
168 6.0000 0.8165
169 6.1667 0.5528
170 6.4286 0.7284
171 6.8182 1.4025
172 6.4615 1.0088
173 6.8667 0.9568
174 6.5238 1.1800
175 6.2727 0.8624
176 6.6111 0.6781
177 5.7778 0.6285
178 6.0909 0.7925
179 6.2222 1.0304
180 6.5000 0.9574
181 6.5000 0.7319
182 6.5385 0.9295
183 6.3846 0.7378
184 6.0000 1.0445
185 6.1111 1.5235
186 5.7778 0.6285
187 6.7857 1.0809
188 6.0000 0.7746
189 6.3636 0.9791
190 5.6667 0.6667
191 6.2222 1.0304
192 6.1538 1.0263
193 6.6000 1.2000
194 6.2727 1.1355
195 6.4667 0.4989
196 6.4286 0.7284
197 6.5000 0.7319
198 6.1818 0.9360
199 6.4286 0.8207
200 6.3571 0.4792
201 6.4667 0.8844
202 6.4167 0.8620
203 6.8125 0.9499
204 6.6154 0.9231
205 6.3333 0.5963
206 6.2500 0.8292
207 6.3636 1.0679
208 6.1818 0.7158
209 6.1818 0.7158
210 6.4545 0.8907
211 6.2500 0.8292
212 6.4615 0.8427
213 6.3846 0.6249
214 6.3077 0.7216
215 6.3333 0.8498
216 6.1538 0.8635
217 6.1538 0.6617
218 6.2727 0.7497
219 6.5000 0.8238
220 6.5385 0.8427
221 6.1000 1.0440
222 6.4286 0.8207
223 6.2308 0.7994
224 6.5000 0.8660
225 6.3333 0.8498
226 6.2857 0.8806
227 6.6250 0.6960
228 6.0000 0.3922
229 6.3636 1.2264
230 6.3077 0.7216
231 6.1000 0.9434
232 6.2727 0.7497
233 6.6000 0.7118
234 6.7692 1.3100
235 6.3750 0.4841
236 6.7857 1.0809
237 6.0909 0.6680
238 6.3333 0.6236
239 6.4615 0.6343
240 6.8462 1.0263
241 6.2727 1.4200
242 6.3636 0.9791
243 6.8750 1.0533
244 6.0000 0.8165
245 6.1818 0.9360
246 6.3077 0.4615
247 6.5714 0.8207
248 6.3571 0.7178
249 6.2857 0.6999
250 6.5833 1.1149
251 6.4167 0.8620
252 6.2143 0.6739
253 6.0769 0.2665
254 6.5882 0.4922
255 6.5385 0.9295
256 6.0000 0.8528
257 6.1111 0.8749
258 6.1818 0.9360
259 6.2500 0.8292
260 6.0833 0.6401
261 6.3846 0.6249
262 6.6923 1.1358
263 5.9000 0.8307
264 6.1000 1.1358
265 6.6923 1.3803
266 6.5333 0.8055
267 6.5000 0.9063
268 6.1667 0.8975
269 6.2308 0.6966
270 6.0909 0.9959
271 6.3333 0.8498
272 5.8000 0.7483
273 6.1667 0.8975
274 6.3846 0.9231
275 6.1538 0.6617
276 6.3077 0.7216
277 6.6154 0.9231
278 5.8000 0.7483
279 6.2222 1.1331
280 6.7273 1.4827
281 6.0000 0.7385
282 5.8889 0.9938
283 6.4615 0.6343
284 6.4286 0.6227
285 6.4286 0.9035
286 6.4286 0.7284
287 6.2941 0.5703
288 6.6364 1.1499
289 6.2000 1.3266
290 6.3750 0.6960
291 6.0000 0.6030
292 5.6667 0.8165
293 6.0000 0.9428
294 6.5625 0.7043
295 6.5294 0.7759
296 6.6250 0.6960
297 6.0000 0.8944
298 6.2500 0.7217
299 6.1667 0.7993
300 6.0909 0.9000
301 6.2727 0.9621
302 6.0000 1.0445
303 6.3077 0.9102
304 6.1818 0.8332
305 6.5455 1.0757
306 5.9167 0.6401
307 6.5455 1.3048
308 5.8333 0.5528
309 6.0833 0.4930
310 6.3077 0.7216
311 6.6429 0.8950
312 6.4286 0.9035
313 6.3571 0.6103
314 6.4375 0.7881
315 6.7857 0.9395
316 6.0000 0.8944
317 6.1667 0.6872
318 6.5333 0.8055
319 6.5000 0.7319
320 6.5333 0.8844
321 6.4286 0.8207
322 6.7143 1.2206
323 6.0909 0.6680
324 6.4375 0.4961
325 6.0833 0.8620
326 6.4615 0.9295
327 6.3846 0.4865
328 6.3077 0.8213
329 6.4545 1.2332
330 6.1667 0.7993
331 6.3846 0.7378
332 6.5385 0.8427
333 6.4167 0.8620
334 6.3077 0.8213
335 6.3636 0.9791
336 6.3636 1.1499
337 6.5714 0.9794
338 6.0000 0.6667
339 6.3846 0.6249
340 6.3846 1.0030
341 6.3333 1.0274
342 6.2308 1.2499
343 6.2500 0.5951
344 6.4444 0.6849
345 6.0909 0.7925
346 6.0000 0.7385
347 6.3333 0.6992
348 6.1000 1.0440
349 6.2500 0.5951
350 6.6667 1.2472
351 6.4667 0.6182
352 6.1818 0.8332
353 6.6923 0.9102
354 6.6923 1.1358
355 6.5333 0.8844
356 6.5714 0.9794
357 6.0769 0.8285
358 6.1000 0.8307
359 6.4615 0.6343
360 6.0000 0.9428
361 6.7143 0.6999
362 6.1667 0.6872
363 6.3846 0.7378
364 6.2143 0.7726
365 6.4706 0.6056
366 6.5882 0.6910
367 6.3333 0.6992
368 6.4667 0.6182
369 6.1818 0.5750
370 6.0909 0.9959
371 6.1111 0.8749
372 6.0833 0.4930
373 6.3000 0.9000
374 6.5455 1.2332
375 6.4000 1.0198
376 6.4000 0.6110
377 6.3077 0.8213
378 6.2308 0.6966
379 6.7333 0.9286
380 6.2500 0.7217
381 6.3846 0.6249
382 6.3636 1.1499
383 6.4167 0.7592
384 6.3636 0.9791
385 5.8000 0.7483
386 6.9333 1.0625
387 6.3636 1.1499
388 5.7778 0.7857
389 6.0000 0.7385
390 6.3846 0.6249
391 6.5000 0.7071
392 6.5294 0.7759
393 6.1000 0.9434
394 6.0000 0.7385
395 6.5385 0.7458
396 6.3077 0.7216
397 6.1538 0.5329
398 6.3000 1.3454
399 6.7692 1.0491
400 6.3077 0.7216
401 6.0000 0.6667
402 6.5000 0.9574
403 5.8889 0.7370
404 6.1000 0.8307
405 6.0909 0.7925
406 6.6429 1.1715
407 6.3846 0.9231
408 6.4167 1.0375
409 6.4167 1.0375
410 5.8000 0.7483
411 6.5333 0.9568
412 6.4286 0.6227
413 6.3333 0.7454
414 6.6250 0.6960
415 6.6667 1.1785
416 6.4167 1.1873
417 6.4167 1.0375
418 6.5000 1.1180
419 6.6000 0.9522
420 6.6154 1.2733
421 6.6667 0.8692
422 6.8571 0.7423
423 6.3636 0.8814
424 6.4615 0.7458
425 6.6250 0.6960
426 6.2500 0.4330
427 6.4615 0.8427
428 6.4286 0.7284
429 6.4615 1.1513
430 6.4286 1.0498
431 6.3846 0.9231
432 6.3333 1.0274
433 6.0909 0.7925
434 6.6154 1.3889
435 6.4286 0.6227
436 6.3333 0.8498
437 6.0000 1.0000
438 6.2143 0.8601
439 6.5714 0.7284
440 6.1818 0.8332
441 6.5385 0.9295
442 6.3077 0.7216
443 6.4000 1.2000
444 6.5000 0.7319
445 6.2727 0.8624
446 6.8000 1.0456
447 6.3333 1.0274
448 6.5333 0.8055
449 6.1000 0.7000
450 6.5333 0.4989
451 6.0909 0.9000
452 6.2727 0.9621
453 6.3333 0.5963
454 6.4615 0.8427
455 6.5385 0.7458
456 6.2308 0.5756
457 6.1818 0.8332
458 6.6667 0.6992
459 6.0000 0.6030
460 6.4167 0.9538
461 6.3333 0.9428
462 6.2308 0.5756
463 6.1667 0.6872
464 6.9286 1.2797
465 6.5000 0.9820
466 5.9000 0.9434
467 6.1818 1.0285
468 6.3571 0.6103
469 6.2000 1.2490
470 6.4167 1.0375
471 6.4615 0.9295
472 6.2667 0.5735
473 6.3846 0.9231
474 6.2727 0.8624
475 6.3077 0.9911
476 6.5714 0.8207
477 6.5833 0.9538
478 6.6429 0.9715
479 6.1818 0.7158
480 6.1667 0.7993
481 6.6429 0.6103
482 6.0909 0.9000
483 6.4545 1.3727
484 6.1667 0.7993
485 6.0000 0.6030
486 6.4167 0.8620
487 6.7273 1.3545
488 6.2000 0.7483
489 6.2308 0.4213
490 6.0000 1.4142
491 6.1000 0.8307
492 6.4615 0.9295
493 6.0769 0.6154
494 5.7273 0.7497
495 6.0000 0.7845
496 6.3846 0.9231
497 6.0000 0.9535
498 6.0833 0.4930
499 6.4375 0.6092
500 6.3846 0.8356
501 6.3077 0.7216
502 6.2143 0.6739
503 6.5455 1.5588
504 6.0909 0.9000
505 6.6154 1.0030
506 6.4286 0.4949
507 6.6154 0.7378
508 6.1818 0.8332
509 6.1538 0.7692
510 6.5625 0.6092
511 6.6923 0.8213
512 6.1818 0.9360
513 6.5833 1.1873
514 6.6154 1.0769
515 6.2000 0.8718
516 6.2727 0.8624
517 6.3333 0.6236
518 6.4000 0.7118
519 6.2500 0.8292
520 6.2727 1.1355
521 6.3077 0.8213
522 6.4667 0.4989
523 6.5385 1.0088
524 6.3125 0.4635
525 6.5333 0.8055
526 6.3636 1.0679
527 6.4667 1.1470
528 6.4615 0.7458
529 6.3333 0.8498
530 6.9412 1.0556
531 6.2727 0.8624
532 6.4167 1.1149
533 6.5000 1.0408
534 6.4615 0.8427
535 6.1538 0.6617
536 6.7333 0.9978
537 6.2500 1.3463
538 6.2308 0.7994
539 6.8000 0.8718
540 5.9231 1.0714
541 6.2500 1.0104
542 6.4286 0.6227
543 6.3333 0.8498
544 6.3636 1.0679
545 6.4545 1.1571
546 6.6875 0.8455
547 6.4375 0.9980
548 6.3333 0.9428
549 6.2500 1.0104
550 5.9167 0.9538
551 5.7000 0.7810
552 6.5000 1.1180
553 5.7778 0.7857
554 6.1667 0.7993
555 6.4000 0.4899
556 6.3333 0.8692
557 6.2727 0.7497
558 6.3636 0.9791
559 6.2727 1.0523
560 5.8889 0.8749
561 6.5625 0.8638
562 6.2500 0.7217
563 6.3846 0.6249
564 6.8235 1.5429
565 6.5333 0.4989
566 6.5385 1.0088
567 6.1818 0.8332
568 6.3571 0.9715
569 6.4167 0.7592
570 6.7143 0.7954
571 6.3000 0.9000
572 6.3333 0.7454
573 6.2727 0.8624
574 6.5833 1.1149
575 6.7692 0.9730
576 6.6923 0.8213
577 6.1667 0.5528
578 6.1667 0.7993
579 6.2727 0.7497
580 6.4167 1.2555
581 6.6250 0.7806
582 6.3077 1.1358
583 6.3333 0.8498
584 6.2500 0.8292
585 6.7273 1.2129
586 6.5000 0.6009
587 6.6667 1.1055
588 6.5333 0.7180
589 6.6667 1.0111
590 6.2143 0.5579
591 6.5385 0.9295
592 6.2500 0.5951
593 6.0000 0.7746
594 6.0000 0.6030
595 6.3846 1.0030
596 6.3000 0.7810
597 6.6667 0.8692
598 5.9091 0.2875
599 6.6000 0.6110
600 6.6429 0.9715
601 6.1667 0.7993
602 7.0000 0.7746
603 6.0909 0.7925
604 6.5833 1.1873
605 6.3846 1.0030
606 6.3333 0.6236
607 6.7500 1.2332
608 6.0909 0.9000
609 5.7500 0.8292
610 6.6667 1.0111
611 6.5294 0.6960
612 6.6875 0.7680
613 6.6154 0.8356
614 6.5714 0.9035
615 6.1667 0.8975
616 6.4667 0.8055
617 5.8889 0.7370
618 6.6667 0.9428
619 6.5333 1.3098
620 6.3000 1.3454
621 6.1667 0.5528
622 6.6364 1.4938
623 6.3000 0.9000
624 6.4375 0.8638
625 6.4167 0.7592
626 6.3077 0.4615
627 6.5385 0.7458
628 6.5000 1.0522
629 6.1538 0.8635
630 6.5385 1.2779
631 6.2727 0.8624
632 6.2500 0.7217
633 6.2500 0.7217
634 6.5833 1.0375
635 6.3636 0.7714
636 6.5385 1.0824
637 6.5714 1.0498
638 6.4545 1.1571
639 6.0000 0.5774
640 6.5833 1.3202
641 6.9231 1.5423
642 6.4286 0.7284
643 6.3333 0.6236
644 6.2308 0.6966
645 6.3333 0.6236
646 6.0000 0.8528
647 6.2857 0.5890
648 5.8182 0.7158
649 6.3333 0.5963
650 5.8889 0.8749
651 6.1667 0.6872
652 6.4615 0.9295
653 6.5000 0.9820
654 6.7143 1.0973
655 7.0625 1.1973
656 6.0000 0.6030
657 6.0000 1.0000
658 6.3571 0.4792
659 6.4615 0.6343
660 6.1667 0.6872
661 5.9091 0.6680
662 6.1000 0.8307
663 6.5385 0.6343
664 6.1818 0.9360
665 6.3000 1.1874
666 6.3846 0.7378
667 6.4000 1.2000
668 6.5385 0.7458
669 5.9091 0.5143
670 6.1818 1.1134
671 6.2667 0.5735
672 6.1818 1.1923
673 6.3750 0.7806
674 6.2500 0.7217
675 6.4167 0.8620
676 6.0769 0.6154
677 6.0000 0.4264
678 6.5385 0.8427
679 6.4118 0.4922
680 7.1250 1.3170
681 6.0833 0.6401
682 6.3077 0.8213
683 6.4286 0.7284
684 6.4286 0.6227
685 6.8000 0.9798
686 6.5333 0.6182
687 6.6923 1.0659
688 6.1818 0.9360
689 6.2000 0.8718
690 6.5833 0.8620
691 6.4167 0.8620
692 6.1000 1.0440
693 6.4000 1.9079
694 6.1111 0.7370
695 6.3077 0.7216
696 6.0000 0.8528
697 6.1818 1.1134
698 6.4286 0.7284
699 6.1000 0.9434
700 6.5455 0.7820
701 6.2308 0.6966
702 6.5625 0.7881
703 5.8889 0.5666
704 6.3333 0.8498
705 6.4286 0.4949
706 6.2727 1.1355
707 6.3077 0.7216
708 6.3846 0.6249
709 6.6429 0.8113
710 6.4615 0.8427
711 6.2727 1.0523
712 6.2000 0.9798
713 6.1667 0.6872
714 6.2308 0.8904
715 6.5833 1.2555
716 6.8571 1.1249
717 6.2000 0.8718
718 6.3077 0.8213
719 6.3333 0.8692
720 6.4667 0.8055
721 6.3846 0.7378
722 6.6154 1.1461
723 6.4615 0.8427
724 6.3077 0.7216
725 6.2500 0.5951
726 6.3333 0.7454
727 6.5000 0.7319
728 6.3846 1.0030
729 6.2500 0.7217
730 6.0909 0.7925
731 6.1000 1.0440
732 6.4000 1.1136
733 5.7500 1.0897
734 6.5000 0.7319
735 6.0000 1.0000
736 6.5000 0.9574
737 6.3333 0.9428
738 6.7143 1.1606
739 6.2727 0.9621
740 6.5789 0.5908
741 6.5000 0.9574
742 6.4000 0.7118
743 7.1000 0.9434
744 6.5000 1.2583
745 6.2857 0.6999
746 6.0909 0.6680
747 6.4286 0.7284
748 6.8333 0.8333
749 6.3846 0.7378
750 6.4375 0.4961
751 6.1000 0.9434
752 6.4000 1.1136
753 6.2500 0.7217
754 6.3077 0.8213
755 6.6154 1.2114
756 6.5714 0.9794
757 6.4167 0.7592
758 6.4167 1.1149
759 6.3333 0.4714
760 6.4000 1.3565
761 6.3636 1.0679
762 6.4000 0.4899
763 6.3636 1.1499
764 6.5385 0.9295
765 6.2727 0.8624
766 6.2857 0.7954
767 6.0000 0.7385
768 6.4000 0.6110
769 6.4545 1.1571
770 6.4167 0.9538
771 5.5556 0.6849
772 6.3846 0.6249
773 6.2308 0.5756
774 6.1667 0.7993
775 6.5000 0.9820
776 6.2308 0.6966
777 6.3846 1.0769
778 6.4667 0.7180
779 6.0000 0.7385
780 6.4000 1.0198
781 6.1818 0.7158
782 6.4667 0.6182
783 6.5385 0.8427
784 6.2727 0.9621
785 6.1818 0.9360
786 6.7500 1.2332
787 6.3077 0.4615
788 6.1667 0.8975
789 6.4167 0.8620
790 6.2500 0.7217
791 6.5455 0.8907
792 6.7500 0.8292
793 6.1667 0.7993
794 6.5455 1.1571
795 6.4167 0.6401
796 6.0769 0.4742
797 6.6000 0.8794
798 6.7857 0.7726
799 6.7500 0.8292
800 6.5385 1.0088
801 6.3333 1.0274
802 6.2500 1.3463
803 6.4667 0.7180
804 6.4667 0.8055
805 6.5385 1.0088
806 6.0909 0.9000
807 6.0909 0.9000
808 6.1667 0.7993
809 5.5000 1.2583
810 6.2727 0.7497
811 6.0000 0.4082
812 6.1538 0.6617
813 6.5000 1.1180
814 6.4615 0.6343
815 6.4167 0.8620
816 6.5882 0.6910
817 6.1818 0.9360
818 6.2500 0.7217
819 6.5000 0.8660
820 6.5714 0.4949
821 6.7143 0.6999
822 6.1818 0.7158
823 6.5000 0.7319
824 6.2308 0.6966
825 6.1818 1.0285
826 6.0833 0.7592
827 6.3846 0.7378
828 6.0833 0.6401
829 6.6154 0.9231
830 6.3333 1.0274
831 6.3333 0.5963
832 6.0000 0.7385
833 6.1667 0.6872
834 6.3333 0.8498
835 6.4615 0.9295
836 6.2727 0.7497
837 6.6154 0.8356
838 6.0000 0.5547
839 6.4000 0.8000
840 6.6154 1.2114
841 5.9091 0.6680
842 6.2222 1.1331
843 6.0000 0.7385
844 6.1818 0.8332
845 6.8125 1.0735
846 6.2000 1.1662
847 6.3750 0.5995
848 6.3077 0.7216
849 6.5000 0.6124
850 6.5000 0.7319
851 6.3077 0.6057
852 6.5714 0.9794
853 6.5000 1.1180
854 6.3333 0.8498
855 6.2727 0.8624
856 6.5455 1.4374
857 6.3846 0.8356
858 6.2000 0.7483
859 6.4000 0.7118
860 5.9091 0.5143
861 6.5385 1.0088
862 6.9412 1.1617
863 6.1818 1.2662
864 6.4286 0.8207
865 6.3333 0.6236
866 5.5556 0.8315
867 6.6250 0.6960
868 6.5714 0.7284
869 6.5333 0.7180
870 6.3636 1.0679
871 6.2727 0.8624
872 6.9091 1.0833
873 6.3636 1.1499
874 6.0769 0.4742
875 6.6154 0.8356
876 6.0833 0.6401
877 6.6667 0.7888
878 5.7857 0.9395
879 6.2500 1.0897
880 6.9091 1.5048
881 6.5000 1.1180
882 6.6154 1.2733
883 6.3846 0.7378
884 6.7857 1.0127
885 6.2727 0.9621
886 6.2000 1.3266
887 6.0909 0.6680
888 6.0000 0.6030
889 6.4000 0.8000
890 6.2308 0.7994
891 6.8333 0.8975
892 5.8000 0.6000
893 6.2308 0.6966
894 6.1818 0.5750
895 6.2308 0.6966
896 6.2500 0.5951
897 6.2308 0.6966
898 6.3636 0.7714
899 6.3077 0.7216
900 5.9000 0.8307
901 6.3077 0.8213
902 6.2000 0.6000
903 6.2500 0.8292
904 6.4615 0.7458
905 6.5000 1.0408
906 6.4615 1.0824
907 6.3077 0.8213
908 6.5000 1.0408
909 6.2727 0.8624
910 6.0000 0.5774
911 6.3333 0.8498
912 6.5385 0.8427
913 6.6923 1.0659
914 5.9231 1.2065
915 6.1000 0.9434
916 6.4167 0.9538
917 6.2143 0.5579
918 6.1667 0.6872
919 6.6667 1.0750
920 6.2727 0.8624
921 6.0000 0.8528
922 6.7333 0.9286
923 6.5455 0.9875
924 6.2222 1.2273
925 6.0833 0.7592
926 6.5833 1.0375
927 6.5000 0.8660
928 6.6154 1.1461
929 6.4167 0.6401
930 6.3333 0.7454
931 6.3846 0.8356
932 6.3333 1.2472
933 6.4545 0.9875
934 6.1667 0.8975
935 6.2500 0.8292
936 6.3571 0.8950
937 6.2500 0.8292
938 6.2857 0.6999
939 6.1667 0.6872
940 6.4167 1.0375
941 6.5000 0.7638
942 6.2727 1.0523
943 6.1667 0.6872
944 6.0909 1.1642
945 6.5000 1.0408
946 6.0000 1.0000
947 6.5833 1.1873
948 6.3333 0.7454
949 6.8462 0.8635
950 6.8571 1.2454
951 6.5333 0.6182
952 6.6364 1.2264
953 6.0000 0.7746
954 6.4615 0.8427
955 6.5000 0.6455
956 6.5000 0.8660
957 6.1818 0.9360
958 6.5714 1.1780
959 6.1333 0.6182
960 6.0833 0.8620
961 6.2727 0.4454
962 6.0000 0.5774
963 6.0909 0.6680
964 6.5000 0.8660
965 6.5833 1.2555
966 7.0000 1.2649
967 6.3571 0.6103
968 6.6154 1.2114
969 5.7000 0.6403
970 6.0833 0.7592
971 6.2308 0.5756
972 6.4286 0.9035
973 5.8889 0.9938
974 6.3846 0.6249
975 6.1333 0.6182
976 6.2500 0.8292
977 6.7333 0.9286
978 6.4615 1.0088
979 6.1667 0.7993
980 6.2000 1.0770
981 6.0000 0.6030
982 6.3571 0.8113
983 6.4615 0.9295
984 6.3636 1.2984
985 6.5333 0.6182
986 6.2727 0.8624
987 6.0000 0.8528
988 6.3846 0.8356
989 6.3077 0.8213
990 6.1818 0.9360
991 6.8462 0.8635
992 6.1818 1.0285
993 6.4615 0.9295
994 6.4167 0.8620
995 6.1818 0.9360
996 6.3333 0.7454
997 6.2500 0.9242
998 6.4167 0.4930
999 6.1818 0.5750
1000 6.0000 1.0541
1001 6.1667 0.7993
1002 6.5625 0.7043
1003 6.6154 1.2114
1004 6.5000 0.9820
1005 6.3333 0.9428
1006 6.5385 1.1513
1007 6.4167 0.9538
1008 6.4706 0.6056
1009 6.3846 0.6249
1010 6.1000 0.9434
1011 6.1000 0.8307
1012 6.5625 0.7043
1013 6.4000 0.6110
1014 6.3077 0.8213
1015 6.3333 0.9428
1016 6.2500 0.9242
1017 6.0000 0.7746
1018 6.3636 0.8814
1019 6.2500 0.9242
1020 6.3333 0.8498
1021 6.2500 1.0104
1022 6.0769 0.9970
1023 6.0909 0.5143
1024 6.3077 0.9102
1025 6.0909 0.9959
1026 6.0000 0.9428
1027 6.4615 0.8427
1028 6.2727 0.9621
1029 6.6429 0.7178
1030 6.3333 0.9428
1031 6.3846 0.6249
1032 6.3333 0.9428
1033 6.4286 1.0498
1034 6.5000 1.2042
1035 6.3333 0.9428
1036 6.2500 0.5590
1037 6.2857 0.5890
1038 6.5714 0.8207
1039 6.5000 1.3844
1040 6.2727 0.8624
1041 6.6154 1.2114
1042 6.7692 0.9730
1043 6.3571 0.8950
1044 5.9000 0.8307
1045 6.3750 0.5995
1046 6.3077 0.7216
1047 6.3333 1.1785
1048 6.4375 0.4961
1049 6.0833 0.8620
1050 6.2308 0.7994
1051 6.2308 0.6966
1052 6.2667 0.5735
1053 6.3846 0.8356
1054 5.3750 0.6960
1055 6.6000 0.8000
1056 6.1538 0.6617
1057 6.3571 0.6103
1058 6.8000 1.1075
1059 6.3846 0.6249
1060 6.8571 1.2454
1061 6.2500 0.7217
1062 6.1000 1.0440
1063 6.5000 0.9063
1064 6.3571 1.2310
1065 6.1667 0.6872
1066 6.5333 0.8844
1067 6.8667 0.7180
1068 5.5000 0.5000
1069 6.3077 1.2640
1070 6.4000 1.2000
1071 6.2143 0.4103
1072 6.0909 0.7925
1073 6.6923 1.1358
1074 6.5385 0.9295
1075 6.1000 0.9434
1076 6.1667 0.6872
1077 6.5333 0.7180
1078 6.0909 0.6680
1079 5.8182 0.3857
1080 6.3750 0.5995
1081 5.9091 0.6680
1082 6.7273 1.1355
1083 5.9091 0.7925
1084 6.3636 0.7714
1085 6.2857 0.7954
1086 6.6667 0.7888
1087 6.0000 0.5547
1088 6.5385 0.8427
1089 6.4615 0.7458
1090 6.4545 1.0757
1091 6.1818 0.9360
1092 6.9231 0.9166
1093 6.2308 0.7994
1094 6.3077 0.6057
1095 6.3333 0.9428
1096 6.3846 1.0769
1097 6.8000 0.9092
1098 6.2857 0.6999
1099 6.5000 0.5000
1100 6.2000 0.7483
1101 6.7143 1.0302
1102 6.4167 0.9538
1103 6.0000 0.7746
1104 6.5000 1.1180
1105 6.3333 0.9428
1106 6.4615 0.9295
1107 6.3571 0.6103
1108 6.1818 0.9360
1109 6.6875 0.8455
1110 6.0000 0.9535
1111 6.5833 0.8620
1112 6.4167 0.7592
1113 6.2000 1.0770
1114 6.4286 1.0498
1115 5.8750 1.0533
1116 6.2727 1.0523
1117 6.2000 1.4697
1118 6.6471 0.9037
1119 6.4286 0.6227
1120 6.0000 0.8944
1121 6.4167 0.8620
1122 6.0833 1.0375
1123 6.2143 1.0127
1124 5.9167 0.6401
1125 6.4167 0.7592
1126 6.5714 0.9035
1127 6.4615 0.8427
1128 5.8889 0.7370
1129 6.4667 0.7180
1130 6.6364 1.5535
1131 6.1818 0.7158
1132 6.4286 0.7284
1133 5.9231 0.8285
1134 6.6154 1.0769
1135 6.0909 0.6680
1136 6.0833 0.8620
1137 6.3846 0.7378
1138 6.5000 0.9820
1139 6.3529 0.6809
1140 6.4615 1.0824
1141 6.3333 0.5963
1142 6.3636 1.0679
1143 6.4167 1.1149
1144 6.1111 0.7370
1145 6.3750 0.7806
1146 6.4118 0.4922
1147 6.5000 0.6268
1148 6.3846 0.7378
1149 6.3333 0.6236
1150 6.0909 1.1642
1151 6.4545 0.6556
1152 6.0000 0.9428
1153 6.1000 1.2207
1154 6.0000 0.6030
1155 6.0000 0.9535
1156 6.2500 0.8292
1157 6.0000 0.6030
1158 6.3000 1.1000
1159 6.0833 0.7592
1160 6.3571 0.6103
1161 6.2500 0.8292
1162 6.3846 0.6249
1163 6.4000 0.6110
1164 6.7692 1.3100
1165 6.4286 0.6227
1166 6.0769 0.2665
1167 6.3571 0.7178
1168 6.3077 0.6057
1169 6.0000 0.7385
1170 6.9286 0.9610
1171 6.2308 0.5756
1172 6.1818 0.9360
1173 6.5833 1.0375
1174 6.1000 0.8307
1175 6.5714 1.0498
1176 6.0000 0.8528
1177 6.0909 0.5143
1178 6.6923 1.3803
1179 6.5455 1.0757
1180 6.7500 0.7500
1181 6.1000 0.9434
1182 6.6000 0.7118
1183 6.8571 1.3553
1184 6.4286 0.6227
1185 6.6154 0.8356
1186 6.2500 0.8292
1187 6.0909 0.9000
1188 6.7692 1.2499
1189 6.5000 0.6268
1190 6.7333 0.7717
1191 6.3846 0.6249
1192 6.5385 1.0088
1193 5.5556 0.4969
1194 5.9000 0.9434
1195 6.4286 0.4949
1196 5.9000 0.5385
1197 6.7333 0.9978
1198 6.2308 0.5756
1199 6.0000 1.0445
1200 6.0000 0.9535
1201 6.5333 0.9568
1202 6.2000 1.1662
1203 6.2308 0.5756
1204 6.5385 0.8427
1205 6.6364 1.1499
1206 6.5714 0.7284
1207 6.3571 0.6103
1208 6.5385 1.0088
1209 6.2308 0.7994
1210 6.5385 0.8427
1211 6.0000 1.0954
1212 6.4615 0.9295
1213 6.5000 1.1902
1214 6.0000 0.8944
1215 6.2308 0.6966
1216 6.5000 0.9063
1217 6.4615 0.8427
1218 5.8182 0.7158
1219 6.7143 1.2778
1220 6.3846 0.8356
1221 6.3636 1.1499
1222 6.5333 0.8055
1223 6.0000 1.4142
1224 6.3333 0.6236
1225 6.3077 0.9102
1226 6.5882 0.6910
1227 6.6923 1.0659
1228 6.5385 1.0088
1229 6.5000 0.6124
1230 6.5000 1.0408
1231 6.1000 0.9434
1232 6.4286 1.1780
1233 6.7647 0.8765
1234 6.5333 0.7180
1235 6.3333 0.8498
1236 6.4375 0.4961
1237 6.1818 0.7158
1238 6.2500 0.8292
1239 6.3077 0.9102
1240 6.4000 0.8000
1241 6.5000 0.6268
1242 6.7692 0.9730
1243 5.8000 0.7483
1244 6.7500 0.9014
1245 6.5833 1.1149
1246 6.2500 0.5951
1247 6.1667 0.6872
1248 6.4667 0.8844
1249 6.3077 0.6057
1250 6.1818 0.8332
1251 6.7333 1.0625
1252 6.5385 1.0824
1253 6.6000 0.4899
1254 6.3846 0.9231
1255 6.5833 1.1149
1256 6.8462 1.1666
1257 6.3077 1.0659
1258 6.4706 0.6056
1259 6.7143 0.9583
1260 6.3333 0.8498
1261 6.4615 0.7458
1262 6.5714 0.8207
1263 5.8125 0.9499
1264 6.3636 0.4810
1265 6.0909 0.7925
1266 6.0909 0.7925
1267 6.3333 1.1055
1268 6.3077 0.8213
1269 6.5000 0.9574
1270 6.5000 1.2042
1271 6.2500 0.8292
1272 6.3333 0.8498
1273 7.0714 1.1628
1274 6.2857 0.6999
1275 6.4286 0.7284
1276 6.2500 0.9242
1277 6.9412 0.8725
1278 6.5000 0.8238
1279 6.4667 0.6182
1280 6.4000 1.1136
1281 6.3846 0.8356
1282 6.2143 0.5579
1283 6.5714 0.9794
1284 6.5000 0.8238
1285 6.7143 0.7954
1286 6.1538 0.6617
1287 6.3571 0.6103
1288 6.3333 0.7454
1289 6.6429 0.8113
1290 6.3846 0.7378
1291 6.6000 0.8000
1292 6.5714 0.7284
1293 6.8000 0.8327
1294 5.8750 0.9270
1295 6.0000 0.6030
1296 6.4615 0.8427
1297 6.5714 0.7284
1298 6.2727 0.8624
1299 6.1667 0.8975
1300 6.5000 0.7071
1301 6.6250 0.8570
1302 6.0000 0.8165
1303 6.3333 1.1055
1304 6.4286 0.6227
1305 6.2143 0.5579
1306 6.0769 0.7298
1307 6.2727 0.8624
1308 5.8889 1.9689
1309 6.6250 0.7806
1310 6.4167 1.0375
1311 6.4167 1.0375
1312 6.0833 0.6401
1313 6.5385 1.0088
1314 6.5000 1.0408
1315 6.3077 0.7216
1316 6.5333 0.7180
1317 6.4615 0.8427
1318 6.6429 0.8950
1319 6.2500 0.8292
1320 6.1111 0.8749
1321 6.5385 1.0088
1322 5.9000 0.7000
1323 6.8333 1.3437
1324 6.7692 1.1200
1325 6.0000 0.7385
1326 6.4667 0.8055
1327 5.7500 0.8292
1328 6.6000 0.4899
1329 6.1818 0.8332
1330 6.4667 0.6182
1331 6.1000 0.8307
1332 6.3846 0.8356
1333 6.3077 0.7216
1334 6.0909 0.7925
1335 6.0000 0.4472
1336 6.6429 0.8113
1337 6.2500 0.7217
1338 6.0000 0.8944
1339 6.4000 1.2806
1340 6.4167 1.0375
1341 6.5000 1.1180
1342 6.5714 0.8207
1343 6.5714 0.7284
1344 6.3636 1.0679
1345 6.2308 0.6966
1346 6.2857 0.6999
1347 6.0909 0.6680
1348 6.2000 1.0770
1349 6.2727 1.1355
1350 6.2308 0.7994
1351 6.1000 0.9434
1352 6.3333 0.7454
1353 6.2727 0.9621
1354 6.3636 0.9791
1355 6.5000 0.9063
1356 6.3636 1.0679
1357 6.3333 0.7888
1358 6.4615 0.7458
1359 6.4615 0.8427
1360 6.4615 1.0824
1361 6.2308 0.7994
1362 6.4167 0.8620
1363 6.8125 1.0136
1364 6.2308 0.7994
1365 5.8889 0.8749
1366 6.1818 0.8332
1367 6.5714 0.9035
1368 6.3636 1.4316
1369 6.5000 1.1180
1370 6.0000 0.9428
1371 6.3846 1.0769
1372 6.3846 0.6249
1373 6.5455 1.1571
1374 5.7143 0.8806
1375 6.2727 0.7497
1376 6.5333 0.6182
1377 6.4167 0.9538
1378 6.0000 0.8528
1379 6.5385 0.7458
1380 6.5000 0.9574
1381 6.3571 0.4792
1382 5.9091 0.5143
1383 6.4615 1.2779
1384 6.2308 0.6966
1385 6.2308 0.6966
1386 6.1000 0.8307
1387 6.0909 0.6680
1388 6.3846 0.8356
1389 6.6154 1.0769
1390 5.9000 0.7000
1391 5.9000 0.8307
1392 6.1000 0.8307
1393 6.0000 0.8944
1394 6.3846 0.9231
1395 6.2000 0.7483
1396 6.5000 0.9820
1397 5.9091 0.7925
1398 6.2727 0.7497
1399 6.5714 0.7284
1400 6.3333 0.7454
1401 6.4615 0.8427
1402 6.5000 1.2042
1403 6.0588 1.2113
1404 6.0000 0.7385
1405 6.2000 0.9798
1406 6.5385 1.0088
1407 6.0909 0.6680
1408 6.6154 1.2733
1409 6.3636 0.6428
1410 6.0909 0.7925
1411 6.6364 1.2984
1412 6.3333 1.0274
1413 6.2857 0.6999
1414 6.0000 0.6030
1415 6.3846 0.6249
1416 6.0000 0.9428
1417 6.4615 0.9295
1418 6.1000 0.8307
1419 6.0769 0.4742
1420 5.8889 0.7370
1421 6.0000 0.7746
1422 6.6667 0.8692
1423 6.6000 1.0832
1424 6.3333 1.1055
1425 6.4167 0.9538
1426 6.1667 0.6872
1427 6.5625 0.6092
1428 6.2000 0.7483
1429 6.5000 0.7319
1430 6.0000 0.0000
1431 6.5385 1.0088
1432 6.0909 0.6680
1433 6.6500 0.7263
1434 6.0000 0.7746
1435 6.4615 0.6343
1436 6.1667 0.6872
1437 6.0769 0.6154
1438 6.1667 0.7993
1439 6.2500 0.9242
1440 6.1818 0.7158
1441 6.2308 0.8904
1442 6.3333 0.7454
1443 6.4615 1.0088
1444 6.3571 0.9715
1445 6.1538 0.5329
1446 6.7692 1.3674
1447 6.5333 0.9568
1448 6.3571 0.4792
1449 6.5455 1.1571
1450 6.1818 0.7158
1451 6.1875 0.5266
1452 6.3636 0.8814
1453 6.8571 1.1867
1454 6.1000 0.9434
1455 6.3571 0.7178
1456 6.2500 0.8292
1457 6.3636 1.0679
1458 6.5714 0.7284
1459 5.9091 0.7925
1460 6.4375 0.7043
1461 6.7500 1.2332
1462 5.9000 0.7000
1463 6.1000 1.1358
1464 6.6429 0.8950
1465 6.4545 1.1571
1466 6.2500 0.9242
1467 5.8000 0.4000
1468 6.1667 0.5528
1469 6.3571 0.6103
1470 6.0000 0.6030
1471 6.5882 0.5999
1472 6.4000 0.6110
1473 6.5385 0.8427
1474 6.0000 0.8165
1475 6.0000 1.1547
1476 6.1818 0.9360
1477 6.3333 0.6236
1478 6.7500 0.9682
1479 6.4167 1.1873
1480 6.2500 1.0897
1481 6.3571 0.8950
1482 6.3077 1.1358
1483 6.6154 0.4865
1484 6.3000 1.0050
1485 6.9375 1.1439
1486 6.3077 0.7216
1487 6.3333 0.9428
1488 6.1818 0.7158
1489 6.3846 0.6249
1490 6.1000 0.9434
1491 6.0909 0.6680
1492 6.3636 0.8814
1493 6.0909 0.7925
1494 6.2727 0.8624
1495 6.4706 0.6056
1496 6.1667 0.7993
1497 6.3077 0.7216
1498 6.6154 0.9231
1499 6.8667 1.0242
1500 6.3077 0.7216
1501 6.5000 0.7071
1502 6.3000 1.1874
1503 6.5000 0.9574
1504 6.5000 1.1180
1505 6.4167 0.7592
1506 6.3636 1.0679
1507 6.4615 0.7458
1508 6.0909 0.7925
1509 6.4167 0.9538
1510 6.4167 0.8620
1511 6.4615 0.7458
1512 6.0000 0.7385
1513 6.2857 0.6999
1514 6.2308 0.5756
1515 6.3333 1.0274
1516 6.5000 1.2042
1517 6.1538 0.7692
1518 6.4615 0.8427
1519 6.1667 0.5528
1520 6.2727 1.0523
1521 6.4167 0.9538
1522 6.3077 0.4615
1523 6.5000 0.6268
1524 6.7500 1.0897
1525 6.1000 0.8307
1526 6.5000 0.5000
1527 6.3571 0.8113
1528 6.4286 0.7284
1529 6.5385 0.6343
1530 6.5333 0.6182
1531 6.0909 0.7925
1532 6.7692 1.0491
1533 6.4615 1.0088
1534 6.3077 0.6057
1535 6.2500 0.8292
1536 6.4167 0.9538
1537 6.2667 0.4422
1538 6.4545 1.2332
1539 6.4167 0.6401
1540 6.1667 0.5528
1541 6.2727 1.1355
1542 5.8182 0.5750
1543 6.2222 1.3147
1544 6.5000 0.6124
1545 6.4167 0.9538
1546 6.4615 0.9295
1547 6.3000 1.0050
1548 5.7778 0.6285
1549 6.4545 1.1571
1550 6.2500 1.0897
1551 6.0909 0.9000
1552 6.2500 1.0104
1553 5.8889 0.9938
1554 6.5000 1.0408
1555 6.7857 1.2637
1556 6.0000 0.7071
1557 6.0833 0.4930
1558 6.1538 0.5329
1559 6.1667 1.0672
1560 6.2308 0.5756
1561 6.3333 0.7454
1562 6.2857 0.5890
1563 6.6429 1.0425
1564 6.2308 0.5756
1565 6.4000 0.6110
1566 6.3636 1.3667
1567 6.0909 0.7925
1568 6.0833 0.7592
1569 5.9167 0.7592
1570 6.5833 0.9538
1571 6.0000 0.5547
1572 6.3529 0.5882
1573 5.8889 0.8749
1574 6.3333 1.1055
1575 6.1538 0.7692
1576 6.0000 0.7385
1577 6.2308 0.5756
1578 6.0000 0.7385
1579 6.0000 0.0000
1580 6.6875 0.5830
1581 5.7273 0.7497
1582 6.6154 1.2114
1583 6.1818 1.0285
1584 6.6923 1.2640
1585 6.4286 0.9035
1586 5.8750 0.9270
1587 6.3333 0.9428
1588 6.2308 0.8904
1589 6.3333 0.8498
1590 6.3636 0.9791
1591 6.5385 0.8427
1592 6.5385 0.9295
1593 6.1667 0.7993
1594 6.0000 0.7385
1595 6.0909 0.9000
1596 5.8000 0.6000
1597 6.8000 0.8327
1598 6.3846 0.6249
1599 6.5385 0.9295
1600 6.5714 0.6227
1601 6.6429 1.2310
1602 6.3000 1.2689
1603 6.3750 0.4841
1604 6.1667 0.6872
1605 5.8667 0.8055
1606 6.1000 0.9434
1607 6.4167 0.8620
1608 6.5000 1.1180
1609 6.3000 0.7810
1610 6.3333 0.9428
1611 6.5455 0.9875
1612 6.6250 0.7806
1613 6.7500 0.7500
1614 6.3333 1.3333
1615 6.0000 0.7746
1616 6.1667 0.7993
1617 6.2500 0.5951
1618 6.4667 1.1470
1619 6.4375 0.6092
1620 6.2353 0.5455
1621 6.3571 0.7178
1622 6.0909 0.6680
1623 6.4286 0.8207
1624 6.4167 1.1149
1625 6.0909 0.9000
1626 6.3333 0.5963